<?xml version="1.0" encoding="UTF-8"?>

<!-- generated on Sat 23 Nov 2019 07:23:30 PM PST by Eclipse SUMO GUI Version v1_3_1+0752-841bf6b
<configuration xmlns:xsi="http://www.w3.org/2001/XMLSchema-instance" xsi:noNamespaceSchemaLocation="http://sumo.dlr.de/xsd/sumoConfiguration.xsd">

    <input>
        <net-file value="data/cross.net.xml"/>
        <route-files value="data/cross.rou.xml"/>
        <additional-files value="data/cross.add.xml"/>
    </input>

    <output>
        <tripinfo-output value="tripinfo.xml"/>
    </output>

    <time>
        <begin value="0"/>
    </time>

    <report>
        <verbose value="true"/>
        <no-step-log value="true"/>
    </report>

    <traci_server>
        <remote-port value="53253"/>
    </traci_server>

</configuration>
-->

<tripinfos xmlns:xsi="http://www.w3.org/2001/XMLSchema-instance" xsi:noNamespaceSchemaLocation="http://sumo.dlr.de/xsd/tripinfo_file.xsd">
    <tripinfo id="f23.0" depart="9.00" departLane="Ei_0" departPos="5.10" departSpeed="0.00" departDelay="8.00" arrival="22.00" arrivalLane="So_0" arrivalPos="38.65" arrivalSpeed="10.83" duration="13.00" routeLength="94.09" waitingTime="0.00" waitingCount="0" stopTime="0.00" timeLoss="5.67" rerouteNo="0" devices="tripinfo_f23.0 routing_f23.0" vType="DEFAULT_VEHTYPE" speedFactor="1.05" vaporized=""/>
    <tripinfo id="f41.0" depart="0.00" departLane="Ni_0" departPos="5.10" departSpeed="0.00" departDelay="0.00" arrival="34.00" arrivalLane="Wo_0" arrivalPos="38.65" arrivalSpeed="11.02" duration="34.00" routeLength="81.56" waitingTime="19.00" waitingCount="1" stopTime="0.00" timeLoss="28.28" rerouteNo="0" devices="tripinfo_f41.0 routing_f41.0" vType="DEFAULT_VEHTYPE" speedFactor="1.08" vaporized=""/>
    <tripinfo id="f43.0" depart="3.00" departLane="Ni_0" departPos="5.10" departSpeed="0.00" departDelay="1.00" arrival="35.00" arrivalLane="So_1" arrivalPos="38.65" arrivalSpeed="10.24" duration="32.00" routeLength="95.21" waitingTime="16.00" waitingCount="1" stopTime="0.00" timeLoss="25.32" rerouteNo="0" devices="tripinfo_f43.0 routing_f43.0" vType="DEFAULT_VEHTYPE" speedFactor="1.03" vaporized=""/>
    <tripinfo id="f34.0" depart="1.00" departLane="Si_0" departPos="5.10" departSpeed="0.00" departDelay="0.00" arrival="36.00" arrivalLane="No_0" arrivalPos="38.65" arrivalSpeed="9.49" duration="35.00" routeLength="95.21" waitingTime="18.00" waitingCount="1" stopTime="0.00" timeLoss="26.76" rerouteNo="0" devices="tripinfo_f34.0 routing_f34.0" vType="DEFAULT_VEHTYPE" speedFactor="0.89" vaporized=""/>
    <tripinfo id="f32.0" depart="4.00" departLane="Si_0" departPos="5.10" departSpeed="0.00" departDelay="3.00" arrival="36.00" arrivalLane="Eo_0" arrivalPos="38.65" arrivalSpeed="10.09" duration="32.00" routeLength="81.56" waitingTime="16.00" waitingCount="1" stopTime="0.00" timeLoss="25.24" rerouteNo="0" devices="tripinfo_f32.0 routing_f32.0" vType="DEFAULT_VEHTYPE" speedFactor="0.94" vaporized=""/>
    <tripinfo id="f34.1" depart="7.00" departLane="Si_0" departPos="5.10" departSpeed="0.00" departDelay="5.00" arrival="36.00" arrivalLane="No_1" arrivalPos="38.65" arrivalSpeed="11.81" duration="29.00" routeLength="95.21" waitingTime="12.00" waitingCount="1" stopTime="0.00" timeLoss="21.82" rerouteNo="0" devices="tripinfo_f34.1 routing_f34.1" vType="DEFAULT_VEHTYPE" speedFactor="1.09" vaporized=""/>
    <tripinfo id="f41.1" depart="7.00" departLane="Ni_0" departPos="5.10" departSpeed="0.00" departDelay="3.00" arrival="37.00" arrivalLane="Wo_0" arrivalPos="38.65" arrivalSpeed="9.14" duration="30.00" routeLength="81.56" waitingTime="15.00" waitingCount="1" stopTime="0.00" timeLoss="22.77" rerouteNo="0" devices="tripinfo_f41.1 routing_f41.1" vType="DEFAULT_VEHTYPE" speedFactor="0.94" vaporized=""/>
    <tripinfo id="f43.2" depart="13.00" departLane="Ni_0" departPos="5.10" departSpeed="0.00" departDelay="6.00" arrival="37.00" arrivalLane="So_1" arrivalPos="38.65" arrivalSpeed="8.15" duration="24.00" routeLength="95.21" waitingTime="7.00" waitingCount="1" stopTime="0.00" timeLoss="17.97" rerouteNo="0" devices="tripinfo_f43.2 routing_f43.2" vType="DEFAULT_VEHTYPE" speedFactor="1.15" vaporized=""/>
    <tripinfo id="f34.2" depart="9.00" departLane="Si_0" departPos="5.10" departSpeed="0.00" departDelay="6.00" arrival="38.00" arrivalLane="No_1" arrivalPos="38.65" arrivalSpeed="9.73" duration="29.00" routeLength="95.21" waitingTime="11.00" waitingCount="1" stopTime="0.00" timeLoss="21.01" rerouteNo="0" devices="tripinfo_f34.2 routing_f34.2" vType="DEFAULT_VEHTYPE" speedFactor="0.93" vaporized=""/>
    <tripinfo id="f32.1" depart="12.00" departLane="Si_0" departPos="5.10" departSpeed="0.00" departDelay="9.00" arrival="39.00" arrivalLane="Eo_0" arrivalPos="38.65" arrivalSpeed="9.41" duration="27.00" routeLength="81.56" waitingTime="13.00" waitingCount="1" stopTime="0.00" timeLoss="19.19" rerouteNo="0" devices="tripinfo_f32.1 routing_f32.1" vType="DEFAULT_VEHTYPE" speedFactor="0.88" vaporized=""/>
    <tripinfo id="f43.1" depart="10.00" departLane="Ni_0" departPos="5.10" departSpeed="0.00" departDelay="4.00" arrival="40.00" arrivalLane="So_0" arrivalPos="38.65" arrivalSpeed="11.48" duration="30.00" routeLength="95.21" waitingTime="14.00" waitingCount="1" stopTime="0.00" timeLoss="23.00" rerouteNo="0" devices="tripinfo_f43.1 routing_f43.1" vType="DEFAULT_VEHTYPE" speedFactor="1.13" vaporized=""/>
    <tripinfo id="f34.3" depart="18.00" departLane="Si_0" departPos="5.10" departSpeed="0.00" departDelay="11.00" arrival="40.00" arrivalLane="No_1" arrivalPos="38.65" arrivalSpeed="9.53" duration="22.00" routeLength="95.21" waitingTime="6.00" waitingCount="1" stopTime="0.00" timeLoss="14.05" rerouteNo="0" devices="tripinfo_f34.3 routing_f34.3" vType="DEFAULT_VEHTYPE" speedFactor="0.93" vaporized=""/>
    <tripinfo id="f43.3" depart="17.00" departLane="Ni_0" departPos="5.10" departSpeed="0.00" departDelay="9.00" arrival="40.00" arrivalLane="So_1" arrivalPos="38.65" arrivalSpeed="9.98" duration="23.00" routeLength="95.21" waitingTime="6.00" waitingCount="1" stopTime="0.00" timeLoss="15.26" rerouteNo="0" devices="tripinfo_f43.3 routing_f43.3" vType="DEFAULT_VEHTYPE" speedFactor="0.99" vaporized=""/>
    <tripinfo id="f32.2" depart="15.00" departLane="Si_0" departPos="5.10" departSpeed="0.00" departDelay="10.00" arrival="41.00" arrivalLane="Eo_0" arrivalPos="38.65" arrivalSpeed="9.07" duration="26.00" routeLength="81.56" waitingTime="10.00" waitingCount="1" stopTime="0.00" timeLoss="18.83" rerouteNo="0" devices="tripinfo_f32.2 routing_f32.2" vType="DEFAULT_VEHTYPE" speedFactor="0.89" vaporized=""/>
    <tripinfo id="f41.2" depart="14.00" departLane="Ni_0" departPos="5.10" departSpeed="0.00" departDelay="7.00" arrival="41.00" arrivalLane="Wo_0" arrivalPos="38.65" arrivalSpeed="10.72" duration="27.00" routeLength="81.56" waitingTime="12.00" waitingCount="1" stopTime="0.00" timeLoss="20.15" rerouteNo="0" devices="tripinfo_f41.2 routing_f41.2" vType="DEFAULT_VEHTYPE" speedFactor="1.01" vaporized=""/>
    <tripinfo id="f43.4" depart="18.00" departLane="Ni_0" departPos="5.10" departSpeed="0.00" departDelay="9.00" arrival="41.00" arrivalLane="So_1" arrivalPos="38.65" arrivalSpeed="12.41" duration="23.00" routeLength="95.21" waitingTime="5.00" waitingCount="1" stopTime="0.00" timeLoss="17.08" rerouteNo="0" devices="tripinfo_f43.4 routing_f43.4" vType="DEFAULT_VEHTYPE" speedFactor="1.18" vaporized=""/>
    <tripinfo id="f32.3" depart="19.00" departLane="Si_0" departPos="5.10" departSpeed="0.00" departDelay="12.00" arrival="43.00" arrivalLane="Eo_0" arrivalPos="38.65" arrivalSpeed="11.94" duration="24.00" routeLength="81.56" waitingTime="10.00" waitingCount="1" stopTime="0.00" timeLoss="18.21" rerouteNo="0" devices="tripinfo_f32.3 routing_f32.3" vType="DEFAULT_VEHTYPE" speedFactor="1.18" vaporized=""/>
    <tripinfo id="f43.5" depart="28.00" departLane="Ni_0" departPos="5.10" departSpeed="0.00" departDelay="16.00" arrival="43.00" arrivalLane="So_0" arrivalPos="38.65" arrivalSpeed="11.40" duration="15.00" routeLength="95.21" waitingTime="0.00" waitingCount="0" stopTime="0.00" timeLoss="8.33" rerouteNo="0" devices="tripinfo_f43.5 routing_f43.5" vType="DEFAULT_VEHTYPE" speedFactor="1.09" vaporized=""/>
    <tripinfo id="f42.0" depart="5.00" departLane="Ni_0" departPos="5.10" departSpeed="0.00" departDelay="3.00" arrival="45.00" arrivalLane="Eo_0" arrivalPos="38.65" arrivalSpeed="11.21" duration="40.00" routeLength="94.09" waitingTime="22.00" waitingCount="2" stopTime="0.00" timeLoss="33.54" rerouteNo="0" devices="tripinfo_f42.0 routing_f42.0" vType="DEFAULT_VEHTYPE" speedFactor="1.05" vaporized=""/>
    <tripinfo id="f31.0" depart="14.00" departLane="Si_0" departPos="5.10" departSpeed="0.00" departDelay="9.00" arrival="46.00" arrivalLane="Wo_0" arrivalPos="38.65" arrivalSpeed="10.14" duration="32.00" routeLength="94.09" waitingTime="13.00" waitingCount="2" stopTime="0.00" timeLoss="24.80" rerouteNo="0" devices="tripinfo_f31.0 routing_f31.0" vType="DEFAULT_VEHTYPE" speedFactor="0.98" vaporized=""/>
    <tripinfo id="f34.4" depart="35.00" departLane="Si_0" departPos="5.10" departSpeed="0.00" departDelay="25.00" arrival="48.00" arrivalLane="No_1" arrivalPos="38.65" arrivalSpeed="11.13" duration="13.00" routeLength="95.21" waitingTime="0.00" waitingCount="0" stopTime="0.00" timeLoss="6.02" rerouteNo="0" devices="tripinfo_f34.4 routing_f34.4" vType="DEFAULT_VEHTYPE" speedFactor="1.03" vaporized=""/>
    <tripinfo id="f34.5" depart="38.00" departLane="Si_0" departPos="5.10" departSpeed="0.00" departDelay="24.00" arrival="49.00" arrivalLane="No_0" arrivalPos="38.65" arrivalSpeed="11.13" duration="11.00" routeLength="95.21" waitingTime="0.00" waitingCount="0" stopTime="0.00" timeLoss="4.43" rerouteNo="0" devices="tripinfo_f34.5 routing_f34.5" vType="DEFAULT_VEHTYPE" speedFactor="1.10" vaporized=""/>
    <tripinfo id="f43.7" depart="37.00" departLane="Ni_0" departPos="5.10" departSpeed="0.00" departDelay="23.00" arrival="49.00" arrivalLane="So_0" arrivalPos="38.65" arrivalSpeed="10.69" duration="12.00" routeLength="95.21" waitingTime="0.00" waitingCount="0" stopTime="0.00" timeLoss="5.03" rerouteNo="0" devices="tripinfo_f43.7 routing_f43.7" vType="DEFAULT_VEHTYPE" speedFactor="1.00" vaporized=""/>
    <tripinfo id="f43.6" depart="34.00" departLane="Ni_0" departPos="5.10" departSpeed="0.00" departDelay="21.00" arrival="50.00" arrivalLane="So_1" arrivalPos="38.65" arrivalSpeed="9.21" duration="16.00" routeLength="95.21" waitingTime="0.00" waitingCount="0" stopTime="0.00" timeLoss="7.44" rerouteNo="0" devices="tripinfo_f43.6 routing_f43.6" vType="DEFAULT_VEHTYPE" speedFactor="0.85" vaporized=""/>
    <tripinfo id="f34.6" depart="41.00" departLane="Si_0" departPos="5.10" departSpeed="0.00" departDelay="26.00" arrival="53.00" arrivalLane="No_0" arrivalPos="38.65" arrivalSpeed="9.88" duration="12.00" routeLength="95.21" waitingTime="0.00" waitingCount="0" stopTime="0.00" timeLoss="4.42" rerouteNo="0" devices="tripinfo_f34.6 routing_f34.6" vType="DEFAULT_VEHTYPE" speedFactor="0.97" vaporized=""/>
    <tripinfo id="f43.8" depart="42.00" departLane="Ni_0" departPos="5.10" departSpeed="0.00" departDelay="27.00" arrival="54.00" arrivalLane="So_0" arrivalPos="38.65" arrivalSpeed="12.02" duration="12.00" routeLength="95.21" waitingTime="0.00" waitingCount="0" stopTime="0.00" timeLoss="4.81" rerouteNo="0" devices="tripinfo_f43.8 routing_f43.8" vType="DEFAULT_VEHTYPE" speedFactor="1.12" vaporized=""/>
    <tripinfo id="f43.9" depart="45.00" departLane="Ni_0" departPos="5.10" departSpeed="0.00" departDelay="29.00" arrival="56.00" arrivalLane="So_0" arrivalPos="38.65" arrivalSpeed="9.38" duration="11.00" routeLength="95.21" waitingTime="0.00" waitingCount="0" stopTime="0.00" timeLoss="3.33" rerouteNo="0" devices="tripinfo_f43.9 routing_f43.9" vType="DEFAULT_VEHTYPE" speedFactor="0.94" vaporized=""/>
    <tripinfo id="f34.7" depart="46.00" departLane="Si_0" departPos="5.10" departSpeed="0.00" departDelay="27.00" arrival="58.00" arrivalLane="No_0" arrivalPos="38.65" arrivalSpeed="9.98" duration="12.00" routeLength="95.21" waitingTime="0.00" waitingCount="0" stopTime="0.00" timeLoss="4.13" rerouteNo="0" devices="tripinfo_f34.7 routing_f34.7" vType="DEFAULT_VEHTYPE" speedFactor="0.96" vaporized=""/>
    <tripinfo id="f42.1" depart="21.00" departLane="Ni_0" departPos="5.10" departSpeed="0.00" departDelay="10.00" arrival="60.00" arrivalLane="Eo_0" arrivalPos="38.65" arrivalSpeed="10.47" duration="39.00" routeLength="94.09" waitingTime="20.00" waitingCount="4" stopTime="0.00" timeLoss="32.14" rerouteNo="0" devices="tripinfo_f42.1 routing_f42.1" vType="DEFAULT_VEHTYPE" speedFactor="1.04" vaporized=""/>
    <tripinfo id="f31.1" depart="34.00" departLane="Si_0" departPos="5.10" departSpeed="0.00" departDelay="25.00" arrival="64.00" arrivalLane="Wo_0" arrivalPos="38.65" arrivalSpeed="10.78" duration="30.00" routeLength="94.09" waitingTime="13.00" waitingCount="1" stopTime="0.00" timeLoss="22.43" rerouteNo="0" devices="tripinfo_f31.1 routing_f31.1" vType="DEFAULT_VEHTYPE" speedFactor="0.97" vaporized=""/>
    <tripinfo id="f34.8" depart="49.00" departLane="Si_0" departPos="5.10" departSpeed="0.00" departDelay="28.00" arrival="64.00" arrivalLane="No_0" arrivalPos="38.65" arrivalSpeed="10.57" duration="15.00" routeLength="95.21" waitingTime="0.00" waitingCount="0" stopTime="0.00" timeLoss="7.96" rerouteNo="0" devices="tripinfo_f34.8 routing_f34.8" vType="DEFAULT_VEHTYPE" speedFactor="0.97" vaporized=""/>
    <tripinfo id="f34.9" depart="53.00" departLane="Si_0" departPos="5.10" departSpeed="0.00" departDelay="30.00" arrival="64.00" arrivalLane="No_1" arrivalPos="38.65" arrivalSpeed="11.07" duration="11.00" routeLength="95.21" waitingTime="0.00" waitingCount="0" stopTime="0.00" timeLoss="3.94" rerouteNo="0" devices="tripinfo_f34.9 routing_f34.9" vType="DEFAULT_VEHTYPE" speedFactor="1.02" vaporized=""/>
    <tripinfo id="f32.4" depart="54.00" departLane="Si_0" departPos="5.10" departSpeed="0.00" departDelay="31.00" arrival="65.00" arrivalLane="Eo_0" arrivalPos="38.65" arrivalSpeed="9.45" duration="11.00" routeLength="81.56" waitingTime="0.00" waitingCount="0" stopTime="0.00" timeLoss="3.73" rerouteNo="0" devices="tripinfo_f32.4 routing_f32.4" vType="DEFAULT_VEHTYPE" speedFactor="0.89" vaporized=""/>
    <tripinfo id="f31.2" depart="44.00" departLane="Si_0" departPos="5.10" departSpeed="0.00" departDelay="29.00" arrival="67.00" arrivalLane="Wo_0" arrivalPos="38.65" arrivalSpeed="11.72" duration="23.00" routeLength="94.09" waitingTime="6.00" waitingCount="1" stopTime="0.00" timeLoss="15.80" rerouteNo="0" devices="tripinfo_f31.2 routing_f31.2" vType="DEFAULT_VEHTYPE" speedFactor="1.08" vaporized=""/>
    <tripinfo id="f32.5" depart="57.00" departLane="Si_0" departPos="5.10" departSpeed="0.00" departDelay="32.00" arrival="67.00" arrivalLane="Eo_0" arrivalPos="38.65" arrivalSpeed="9.72" duration="10.00" routeLength="81.56" waitingTime="0.00" waitingCount="0" stopTime="0.00" timeLoss="3.60" rerouteNo="0" devices="tripinfo_f32.5 routing_f32.5" vType="DEFAULT_VEHTYPE" speedFactor="0.92" vaporized=""/>
    <tripinfo id="f31.3" depart="45.00" departLane="Si_0" departPos="5.10" departSpeed="0.00" departDelay="28.00" arrival="69.00" arrivalLane="Wo_0" arrivalPos="38.65" arrivalSpeed="10.87" duration="24.00" routeLength="94.09" waitingTime="6.00" waitingCount="1" stopTime="0.00" timeLoss="16.54" rerouteNo="0" devices="tripinfo_f31.3 routing_f31.3" vType="DEFAULT_VEHTYPE" speedFactor="1.04" vaporized=""/>
    <tripinfo id="f31.4" depart="52.00" departLane="Si_0" departPos="5.10" departSpeed="0.00" departDelay="30.00" arrival="71.00" arrivalLane="Wo_0" arrivalPos="38.65" arrivalSpeed="11.24" duration="19.00" routeLength="94.09" waitingTime="2.00" waitingCount="1" stopTime="0.00" timeLoss="11.52" rerouteNo="0" devices="tripinfo_f31.4 routing_f31.4" vType="DEFAULT_VEHTYPE" speedFactor="1.04" vaporized=""/>
    <tripinfo id="f34.10" depart="60.00" departLane="Si_0" departPos="5.10" departSpeed="0.00" departDelay="34.00" arrival="71.00" arrivalLane="No_0" arrivalPos="38.65" arrivalSpeed="11.37" duration="11.00" routeLength="95.21" waitingTime="0.00" waitingCount="0" stopTime="0.00" timeLoss="4.39" rerouteNo="0" devices="tripinfo_f34.10 routing_f34.10" vType="DEFAULT_VEHTYPE" speedFactor="1.12" vaporized=""/>
    <tripinfo id="f21.0" depart="0.00" departLane="Ei_0" departPos="5.10" departSpeed="0.00" departDelay="0.00" arrival="78.00" arrivalLane="Wo_0" arrivalPos="38.65" arrivalSpeed="10.00" duration="78.00" routeLength="95.21" waitingTime="62.00" waitingCount="1" stopTime="0.00" timeLoss="70.17" rerouteNo="0" devices="tripinfo_f21.0 routing_f21.0" vType="DEFAULT_VEHTYPE" speedFactor="0.94" vaporized=""/>
    <tripinfo id="f24.0" depart="3.00" departLane="Ei_0" departPos="5.10" departSpeed="0.00" departDelay="3.00" arrival="78.00" arrivalLane="No_0" arrivalPos="38.65" arrivalSpeed="11.08" duration="75.00" routeLength="81.56" waitingTime="60.00" waitingCount="1" stopTime="0.00" timeLoss="69.13" rerouteNo="0" devices="tripinfo_f24.0 routing_f24.0" vType="DEFAULT_VEHTYPE" speedFactor="1.01" vaporized=""/>
    <tripinfo id="f23.1" depart="19.00" departLane="Ei_0" departPos="5.10" departSpeed="0.00" departDelay="13.00" arrival="78.00" arrivalLane="So_0" arrivalPos="38.65" arrivalSpeed="9.74" duration="59.00" routeLength="94.09" waitingTime="42.00" waitingCount="1" stopTime="0.00" timeLoss="51.22" rerouteNo="0" devices="tripinfo_f23.1 routing_f23.1" vType="DEFAULT_VEHTYPE" speedFactor="0.92" vaporized=""/>
    <tripinfo id="f21.1" depart="6.00" departLane="Ei_0" departPos="5.10" departSpeed="0.00" departDelay="5.00" arrival="79.00" arrivalLane="Wo_1" arrivalPos="38.65" arrivalSpeed="9.14" duration="73.00" routeLength="95.21" waitingTime="53.00" waitingCount="1" stopTime="0.00" timeLoss="64.13" rerouteNo="0" devices="tripinfo_f21.1 routing_f21.1" vType="DEFAULT_VEHTYPE" speedFactor="0.83" vaporized=""/>
    <tripinfo id="f21.2" depart="10.00" departLane="Ei_0" departPos="5.10" departSpeed="0.00" departDelay="8.00" arrival="81.00" arrivalLane="Wo_1" arrivalPos="38.65" arrivalSpeed="8.81" duration="71.00" routeLength="95.21" waitingTime="53.00" waitingCount="1" stopTime="0.00" timeLoss="62.35" rerouteNo="0" devices="tripinfo_f21.2 routing_f21.2" vType="DEFAULT_VEHTYPE" speedFactor="0.86" vaporized=""/>
    <tripinfo id="f21.3" depart="13.00" departLane="Ei_0" departPos="5.10" departSpeed="0.00" departDelay="10.00" arrival="82.00" arrivalLane="Wo_0" arrivalPos="38.65" arrivalSpeed="10.10" duration="69.00" routeLength="95.21" waitingTime="53.00" waitingCount="1" stopTime="0.00" timeLoss="61.69" rerouteNo="0" devices="tripinfo_f21.3 routing_f21.3" vType="DEFAULT_VEHTYPE" speedFactor="0.99" vaporized=""/>
    <tripinfo id="f21.4" depart="16.00" departLane="Ei_0" departPos="5.10" departSpeed="0.00" departDelay="11.00" arrival="83.00" arrivalLane="Wo_1" arrivalPos="38.65" arrivalSpeed="10.07" duration="67.00" routeLength="95.21" waitingTime="48.00" waitingCount="1" stopTime="0.00" timeLoss="59.40" rerouteNo="0" devices="tripinfo_f21.4 routing_f21.4" vType="DEFAULT_VEHTYPE" speedFactor="1.01" vaporized=""/>
    <tripinfo id="f21.5" depart="17.00" departLane="Ei_0" departPos="5.10" departSpeed="0.00" departDelay="11.00" arrival="85.00" arrivalLane="Wo_0" arrivalPos="38.65" arrivalSpeed="9.13" duration="68.00" routeLength="95.21" waitingTime="51.00" waitingCount="1" stopTime="0.00" timeLoss="59.21" rerouteNo="0" devices="tripinfo_f21.5 routing_f21.5" vType="DEFAULT_VEHTYPE" speedFactor="0.87" vaporized=""/>
    <tripinfo id="f42.2" depart="41.00" departLane="Ni_0" departPos="5.10" departSpeed="0.00" departDelay="27.00" arrival="92.00" arrivalLane="Eo_0" arrivalPos="38.65" arrivalSpeed="10.52" duration="51.00" routeLength="94.09" waitingTime="36.00" waitingCount="1" stopTime="0.00" timeLoss="43.87" rerouteNo="0" devices="tripinfo_f42.2 routing_f42.2" vType="DEFAULT_VEHTYPE" speedFactor="1.00" vaporized=""/>
    <tripinfo id="f43.10" depart="49.00" departLane="Ni_0" departPos="5.10" departSpeed="0.00" departDelay="30.00" arrival="92.00" arrivalLane="So_0" arrivalPos="38.65" arrivalSpeed="9.96" duration="43.00" routeLength="95.21" waitingTime="27.00" waitingCount="1" stopTime="0.00" timeLoss="35.33" rerouteNo="0" devices="tripinfo_f43.10 routing_f43.10" vType="DEFAULT_VEHTYPE" speedFactor="0.98" vaporized=""/>
    <tripinfo id="f43.11" depart="52.00" departLane="Ni_0" departPos="5.10" departSpeed="0.00" departDelay="32.00" arrival="92.00" arrivalLane="So_1" arrivalPos="38.65" arrivalSpeed="10.68" duration="40.00" routeLength="95.21" waitingTime="22.00" waitingCount="1" stopTime="0.00" timeLoss="32.83" rerouteNo="0" devices="tripinfo_f43.11 routing_f43.11" vType="DEFAULT_VEHTYPE" speedFactor="1.03" vaporized=""/>
    <tripinfo id="f41.3" depart="55.00" departLane="Ni_0" departPos="5.10" departSpeed="0.00" departDelay="35.00" arrival="92.00" arrivalLane="Wo_0" arrivalPos="38.65" arrivalSpeed="10.06" duration="37.00" routeLength="81.56" waitingTime="24.00" waitingCount="1" stopTime="0.00" timeLoss="30.39" rerouteNo="0" devices="tripinfo_f41.3 routing_f41.3" vType="DEFAULT_VEHTYPE" speedFactor="1.00" vaporized=""/>
    <tripinfo id="f41.4" depart="59.00" departLane="Ni_0" departPos="5.10" departSpeed="0.00" departDelay="37.00" arrival="94.00" arrivalLane="Wo_0" arrivalPos="38.65" arrivalSpeed="10.91" duration="35.00" routeLength="81.56" waitingTime="21.00" waitingCount="1" stopTime="0.00" timeLoss="28.21" rerouteNo="0" devices="tripinfo_f41.4 routing_f41.4" vType="DEFAULT_VEHTYPE" speedFactor="1.01" vaporized=""/>
    <tripinfo id="f42.3" depart="48.00" departLane="Ni_0" departPos="5.10" departSpeed="0.00" departDelay="32.00" arrival="95.00" arrivalLane="Eo_0" arrivalPos="38.65" arrivalSpeed="8.97" duration="47.00" routeLength="94.09" waitingTime="28.00" waitingCount="1" stopTime="0.00" timeLoss="39.10" rerouteNo="0" devices="tripinfo_f42.3 routing_f42.3" vType="DEFAULT_VEHTYPE" speedFactor="0.88" vaporized=""/>
    <tripinfo id="f41.5" depart="63.00" departLane="Ni_0" departPos="5.10" departSpeed="0.00" departDelay="36.00" arrival="96.00" arrivalLane="Wo_0" arrivalPos="38.65" arrivalSpeed="10.55" duration="33.00" routeLength="81.56" waitingTime="18.00" waitingCount="1" stopTime="0.00" timeLoss="26.25" rerouteNo="0" devices="tripinfo_f41.5 routing_f41.5" vType="DEFAULT_VEHTYPE" speedFactor="0.96" vaporized=""/>
    <tripinfo id="f42.6" depart="66.00" departLane="Ni_0" departPos="5.10" departSpeed="0.00" departDelay="39.00" arrival="97.00" arrivalLane="Eo_0" arrivalPos="38.65" arrivalSpeed="10.54" duration="31.00" routeLength="94.09" waitingTime="13.00" waitingCount="1" stopTime="0.00" timeLoss="23.62" rerouteNo="0" devices="tripinfo_f42.6 routing_f42.6" vType="DEFAULT_VEHTYPE" speedFactor="0.97" vaporized=""/>
    <tripinfo id="f43.12" depart="67.00" departLane="Ni_0" departPos="5.10" departSpeed="0.00" departDelay="39.00" arrival="98.00" arrivalLane="So_1" arrivalPos="38.65" arrivalSpeed="10.41" duration="31.00" routeLength="95.21" waitingTime="12.00" waitingCount="2" stopTime="0.00" timeLoss="23.40" rerouteNo="0" devices="tripinfo_f43.12 routing_f43.12" vType="DEFAULT_VEHTYPE" speedFactor="1.01" vaporized=""/>
    <tripinfo id="f42.4" depart="58.00" departLane="Ni_0" departPos="5.10" departSpeed="0.00" departDelay="37.00" arrival="99.00" arrivalLane="Eo_0" arrivalPos="38.65" arrivalSpeed="12.57" duration="41.00" routeLength="94.09" waitingTime="24.00" waitingCount="1" stopTime="0.00" timeLoss="34.35" rerouteNo="0" devices="tripinfo_f42.4 routing_f42.4" vType="DEFAULT_VEHTYPE" speedFactor="1.15" vaporized=""/>
    <tripinfo id="f41.6" depart="73.00" departLane="Ni_0" departPos="5.10" departSpeed="0.00" departDelay="43.00" arrival="99.00" arrivalLane="Wo_0" arrivalPos="38.65" arrivalSpeed="9.44" duration="26.00" routeLength="81.56" waitingTime="11.00" waitingCount="1" stopTime="0.00" timeLoss="18.30" rerouteNo="0" devices="tripinfo_f41.6 routing_f41.6" vType="DEFAULT_VEHTYPE" speedFactor="0.87" vaporized=""/>
    <tripinfo id="f43.13" depart="70.00" departLane="Ni_0" departPos="5.10" departSpeed="0.00" departDelay="40.00" arrival="100.00" arrivalLane="So_1" arrivalPos="38.65" arrivalSpeed="9.29" duration="30.00" routeLength="95.21" waitingTime="11.00" waitingCount="1" stopTime="0.00" timeLoss="22.19" rerouteNo="0" devices="tripinfo_f43.13 routing_f43.13" vType="DEFAULT_VEHTYPE" speedFactor="0.93" vaporized=""/>
    <tripinfo id="f42.5" depart="62.00" departLane="Ni_0" departPos="5.10" departSpeed="0.00" departDelay="37.00" arrival="106.00" arrivalLane="Eo_0" arrivalPos="38.65" arrivalSpeed="10.91" duration="44.00" routeLength="94.09" waitingTime="23.00" waitingCount="2" stopTime="0.00" timeLoss="37.09" rerouteNo="0" devices="tripinfo_f42.5 routing_f42.5" vType="DEFAULT_VEHTYPE" speedFactor="1.09" vaporized=""/>
    <tripinfo id="f31.5" depart="63.00" departLane="Si_0" departPos="5.10" departSpeed="0.00" departDelay="36.00" arrival="106.00" arrivalLane="Wo_0" arrivalPos="38.65" arrivalSpeed="10.65" duration="43.00" routeLength="94.09" waitingTime="28.00" waitingCount="1" stopTime="0.00" timeLoss="36.03" rerouteNo="0" devices="tripinfo_f31.5 routing_f31.5" vType="DEFAULT_VEHTYPE" speedFactor="1.07" vaporized=""/>
    <tripinfo id="f31.6" depart="67.00" departLane="Si_0" departPos="5.10" departSpeed="0.00" departDelay="37.00" arrival="108.00" arrivalLane="Wo_0" arrivalPos="38.65" arrivalSpeed="10.42" duration="41.00" routeLength="94.09" waitingTime="24.00" waitingCount="1" stopTime="0.00" timeLoss="33.46" rerouteNo="0" devices="tripinfo_f31.6 routing_f31.6" vType="DEFAULT_VEHTYPE" speedFactor="0.96" vaporized=""/>
    <tripinfo id="f31.7" depart="82.00" departLane="Si_0" departPos="5.10" departSpeed="0.00" departDelay="39.00" arrival="111.00" arrivalLane="Wo_0" arrivalPos="38.65" arrivalSpeed="10.85" duration="29.00" routeLength="94.09" waitingTime="11.00" waitingCount="1" stopTime="0.00" timeLoss="21.87" rerouteNo="0" devices="tripinfo_f31.7 routing_f31.7" vType="DEFAULT_VEHTYPE" speedFactor="1.06" vaporized=""/>
    <tripinfo id="f31.8" depart="84.00" departLane="Si_0" departPos="5.10" departSpeed="0.00" departDelay="39.00" arrival="112.00" arrivalLane="Wo_0" arrivalPos="38.65" arrivalSpeed="11.14" duration="28.00" routeLength="94.09" waitingTime="10.00" waitingCount="2" stopTime="0.00" timeLoss="21.68" rerouteNo="0" devices="tripinfo_f31.8 routing_f31.8" vType="DEFAULT_VEHTYPE" speedFactor="1.08" vaporized=""/>
    <tripinfo id="f41.7" depart="90.00" departLane="Ni_0" departPos="5.10" departSpeed="0.00" departDelay="58.00" arrival="118.00" arrivalLane="Wo_0" arrivalPos="38.65" arrivalSpeed="12.67" duration="28.00" routeLength="81.56" waitingTime="14.00" waitingCount="1" stopTime="0.00" timeLoss="22.98" rerouteNo="0" devices="tripinfo_f41.7 routing_f41.7" vType="DEFAULT_VEHTYPE" speedFactor="1.18" vaporized=""/>
    <tripinfo id="f43.14" depart="93.00" departLane="Ni_0" departPos="5.10" departSpeed="0.00" departDelay="60.00" arrival="119.00" arrivalLane="So_1" arrivalPos="38.65" arrivalSpeed="11.84" duration="26.00" routeLength="95.21" waitingTime="8.00" waitingCount="1" stopTime="0.00" timeLoss="19.57" rerouteNo="0" devices="tripinfo_f43.14 routing_f43.14" vType="DEFAULT_VEHTYPE" speedFactor="1.10" vaporized=""/>
    <tripinfo id="f43.15" depart="96.00" departLane="Ni_0" departPos="5.10" departSpeed="0.00" departDelay="61.00" arrival="121.00" arrivalLane="So_1" arrivalPos="38.65" arrivalSpeed="11.76" duration="25.00" routeLength="95.21" waitingTime="7.00" waitingCount="1" stopTime="0.00" timeLoss="18.67" rerouteNo="0" devices="tripinfo_f43.15 routing_f43.15" vType="DEFAULT_VEHTYPE" speedFactor="1.15" vaporized=""/>
    <tripinfo id="f41.8" depart="98.00" departLane="Ni_0" departPos="5.10" departSpeed="0.00" departDelay="63.00" arrival="121.00" arrivalLane="Wo_0" arrivalPos="38.65" arrivalSpeed="11.08" duration="23.00" routeLength="81.56" waitingTime="6.00" waitingCount="1" stopTime="0.00" timeLoss="16.52" rerouteNo="0" devices="tripinfo_f41.8 routing_f41.8" vType="DEFAULT_VEHTYPE" speedFactor="1.03" vaporized=""/>
    <tripinfo id="f43.16" depart="101.00" departLane="Ni_0" departPos="5.10" departSpeed="0.00" departDelay="64.00" arrival="124.00" arrivalLane="So_0" arrivalPos="38.65" arrivalSpeed="11.81" duration="23.00" routeLength="95.21" waitingTime="4.00" waitingCount="1" stopTime="0.00" timeLoss="16.26" rerouteNo="0" devices="tripinfo_f43.16 routing_f43.16" vType="DEFAULT_VEHTYPE" speedFactor="1.07" vaporized=""/>
    <tripinfo id="f43.17" depart="104.00" departLane="Ni_0" departPos="5.10" departSpeed="0.00" departDelay="66.00" arrival="124.00" arrivalLane="So_1" arrivalPos="38.65" arrivalSpeed="11.01" duration="20.00" routeLength="95.21" waitingTime="3.00" waitingCount="1" stopTime="0.00" timeLoss="12.97" rerouteNo="0" devices="tripinfo_f43.17 routing_f43.17" vType="DEFAULT_VEHTYPE" speedFactor="1.01" vaporized=""/>
    <tripinfo id="f41.9" depart="105.00" departLane="Ni_0" departPos="5.10" departSpeed="0.00" departDelay="67.00" arrival="125.00" arrivalLane="Wo_0" arrivalPos="38.65" arrivalSpeed="11.92" duration="20.00" routeLength="81.56" waitingTime="5.00" waitingCount="1" stopTime="0.00" timeLoss="13.71" rerouteNo="0" devices="tripinfo_f41.9 routing_f41.9" vType="DEFAULT_VEHTYPE" speedFactor="1.12" vaporized=""/>
    <tripinfo id="f43.18" depart="108.00" departLane="Ni_0" departPos="5.10" departSpeed="0.00" departDelay="68.00" arrival="126.00" arrivalLane="So_1" arrivalPos="38.65" arrivalSpeed="11.66" duration="18.00" routeLength="95.21" waitingTime="1.00" waitingCount="1" stopTime="0.00" timeLoss="11.41" rerouteNo="0" devices="tripinfo_f43.18 routing_f43.18" vType="DEFAULT_VEHTYPE" speedFactor="1.16" vaporized=""/>