<?xml version="1.0" encoding="UTF-8"?>

<!-- generated on Sat 23 Nov 2019 11:36:03 PM PST by Eclipse SUMO GUI Version v1_3_1+0752-841bf6b
<configuration xmlns:xsi="http://www.w3.org/2001/XMLSchema-instance" xsi:noNamespaceSchemaLocation="http://sumo.dlr.de/xsd/sumoConfiguration.xsd">

    <input>
        <net-file value="data/cross.net.xml"/>
        <route-files value="data/cross.rou.xml"/>
        <additional-files value="data/cross.add.xml"/>
    </input>

    <output>
        <tripinfo-output value="tripinfo.xml"/>
    </output>

    <time>
        <begin value="0"/>
    </time>

    <report>
        <verbose value="true"/>
        <no-step-log value="true"/>
    </report>

    <traci_server>
        <remote-port value="44189"/>
    </traci_server>

</configuration>
-->

<tripinfos xmlns:xsi="http://www.w3.org/2001/XMLSchema-instance" xsi:noNamespaceSchemaLocation="http://sumo.dlr.de/xsd/tripinfo_file.xsd">
    <tripinfo id="f13.0" depart="0.00" departLane="Wi_0" departPos="5.10" departSpeed="0.00" departDelay="0.00" arrival="10.00" arrivalLane="So_0" arrivalPos="38.65" arrivalSpeed="10.99" duration="10.00" routeLength="81.56" waitingTime="0.00" waitingCount="0" stopTime="0.00" timeLoss="3.39" rerouteNo="0" devices="tripinfo_f13.0 routing_f13.0" vType="DEFAULT_VEHTYPE" speedFactor="1.06" vaporized=""/>
    <tripinfo id="f13.1" depart="2.00" departLane="Wi_0" departPos="5.10" departSpeed="0.00" departDelay="1.00" arrival="13.00" arrivalLane="So_0" arrivalPos="38.65" arrivalSpeed="8.75" duration="11.00" routeLength="81.56" waitingTime="0.00" waitingCount="0" stopTime="0.00" timeLoss="4.06" rerouteNo="0" devices="tripinfo_f13.1 routing_f13.1" vType="DEFAULT_VEHTYPE" speedFactor="0.89" vaporized=""/>
    <tripinfo id="f32.0" depart="1.00" departLane="Si_0" departPos="5.10" departSpeed="0.00" departDelay="1.00" arrival="21.00" arrivalLane="Eo_0" arrivalPos="38.65" arrivalSpeed="8.67" duration="20.00" routeLength="81.56" waitingTime="5.00" waitingCount="1" stopTime="0.00" timeLoss="11.98" rerouteNo="0" devices="tripinfo_f32.0 routing_f32.0" vType="DEFAULT_VEHTYPE" speedFactor="0.83" vaporized=""/>
    <tripinfo id="f41.0" depart="0.00" departLane="Ni_0" departPos="5.10" departSpeed="0.00" departDelay="0.00" arrival="21.00" arrivalLane="Wo_0" arrivalPos="38.65" arrivalSpeed="10.35" duration="21.00" routeLength="81.56" waitingTime="5.00" waitingCount="1" stopTime="0.00" timeLoss="14.49" rerouteNo="0" devices="tripinfo_f41.0 routing_f41.0" vType="DEFAULT_VEHTYPE" speedFactor="1.05" vaporized=""/>
    <tripinfo id="f34.0" depart="4.00" departLane="Si_0" departPos="5.10" departSpeed="0.00" departDelay="3.00" arrival="22.00" arrivalLane="No_1" arrivalPos="38.65" arrivalSpeed="11.81" duration="18.00" routeLength="95.21" waitingTime="0.00" waitingCount="0" stopTime="0.00" timeLoss="10.91" rerouteNo="0" devices="tripinfo_f34.0 routing_f34.0" vType="DEFAULT_VEHTYPE" speedFactor="1.09" vaporized=""/>
    <tripinfo id="f32.1" depart="8.00" departLane="Si_0" departPos="5.10" departSpeed="0.00" departDelay="7.00" arrival="22.00" arrivalLane="Eo_0" arrivalPos="38.65" arrivalSpeed="9.93" duration="14.00" routeLength="81.56" waitingTime="0.00" waitingCount="0" stopTime="0.00" timeLoss="8.29" rerouteNo="0" devices="tripinfo_f32.1 routing_f32.1" vType="DEFAULT_VEHTYPE" speedFactor="1.05" vaporized=""/>
    <tripinfo id="f41.1" depart="4.00" departLane="Ni_0" departPos="5.10" departSpeed="0.00" departDelay="1.00" arrival="23.00" arrivalLane="Wo_0" arrivalPos="38.65" arrivalSpeed="10.42" duration="19.00" routeLength="81.56" waitingTime="3.00" waitingCount="1" stopTime="0.00" timeLoss="12.01" rerouteNo="0" devices="tripinfo_f41.1 routing_f41.1" vType="DEFAULT_VEHTYPE" speedFactor="0.95" vaporized=""/>
    <tripinfo id="f34.1" depart="11.00" departLane="Si_0" departPos="5.10" departSpeed="0.00" departDelay="9.00" arrival="25.00" arrivalLane="No_1" arrivalPos="38.65" arrivalSpeed="4.81" duration="14.00" routeLength="95.21" waitingTime="0.00" waitingCount="0" stopTime="0.00" timeLoss="5.88" rerouteNo="0" devices="tripinfo_f34.1 routing_f34.1" vType="DEFAULT_VEHTYPE" speedFactor="0.88" vaporized=""/>
    <tripinfo id="f41.2" depart="7.00" departLane="Ni_0" departPos="5.10" departSpeed="0.00" departDelay="3.00" arrival="25.00" arrivalLane="Wo_0" arrivalPos="38.65" arrivalSpeed="10.82" duration="18.00" routeLength="81.56" waitingTime="2.00" waitingCount="1" stopTime="0.00" timeLoss="11.30" rerouteNo="0" devices="tripinfo_f41.2 routing_f41.2" vType="DEFAULT_VEHTYPE" speedFactor="0.99" vaporized=""/>
    <tripinfo id="f32.2" depart="15.00" departLane="Si_0" departPos="5.10" departSpeed="0.00" departDelay="13.00" arrival="26.00" arrivalLane="Eo_0" arrivalPos="38.65" arrivalSpeed="9.64" duration="11.00" routeLength="81.56" waitingTime="0.00" waitingCount="0" stopTime="0.00" timeLoss="3.88" rerouteNo="0" devices="tripinfo_f32.2 routing_f32.2" vType="DEFAULT_VEHTYPE" speedFactor="0.94" vaporized=""/>
    <tripinfo id="f43.0" depart="14.00" departLane="Ni_0" departPos="5.10" departSpeed="0.00" departDelay="2.00" arrival="26.00" arrivalLane="So_1" arrivalPos="38.65" arrivalSpeed="10.79" duration="12.00" routeLength="95.21" waitingTime="0.00" waitingCount="0" stopTime="0.00" timeLoss="4.12" rerouteNo="0" devices="tripinfo_f43.0 routing_f43.0" vType="DEFAULT_VEHTYPE" speedFactor="0.98" vaporized=""/>
    <tripinfo id="f41.3" depart="10.00" departLane="Ni_0" departPos="5.10" departSpeed="0.00" departDelay="3.00" arrival="27.00" arrivalLane="Wo_0" arrivalPos="38.65" arrivalSpeed="10.38" duration="17.00" routeLength="81.56" waitingTime="1.00" waitingCount="1" stopTime="0.00" timeLoss="10.19" rerouteNo="0" devices="tripinfo_f41.3 routing_f41.3" vType="DEFAULT_VEHTYPE" speedFactor="1.00" vaporized=""/>
    <tripinfo id="f31.0" depart="0.00" departLane="Si_0" departPos="5.10" departSpeed="0.00" departDelay="0.00" arrival="30.00" arrivalLane="Wo_0" arrivalPos="38.65" arrivalSpeed="10.61" duration="30.00" routeLength="94.09" waitingTime="12.00" waitingCount="2" stopTime="0.00" timeLoss="23.27" rerouteNo="0" devices="tripinfo_f31.0 routing_f31.0" vType="DEFAULT_VEHTYPE" speedFactor="1.03" vaporized=""/>
    <tripinfo id="f34.2" depart="18.00" departLane="Si_0" departPos="5.10" departSpeed="0.00" departDelay="15.00" arrival="30.00" arrivalLane="No_0" arrivalPos="38.65" arrivalSpeed="8.82" duration="12.00" routeLength="95.21" waitingTime="0.00" waitingCount="0" stopTime="0.00" timeLoss="3.61" rerouteNo="0" devices="tripinfo_f34.2 routing_f34.2" vType="DEFAULT_VEHTYPE" speedFactor="0.83" vaporized=""/>
    <tripinfo id="f31.1" depart="7.00" departLane="Si_0" departPos="5.10" departSpeed="0.00" departDelay="6.00" arrival="32.00" arrivalLane="Wo_0" arrivalPos="38.65" arrivalSpeed="10.85" duration="25.00" routeLength="94.09" waitingTime="4.00" waitingCount="1" stopTime="0.00" timeLoss="18.02" rerouteNo="0" devices="tripinfo_f31.1 routing_f31.1" vType="DEFAULT_VEHTYPE" speedFactor="1.03" vaporized=""/>
    <tripinfo id="f42.0" depart="3.00" departLane="Ni_0" departPos="5.10" departSpeed="0.00" departDelay="1.00" arrival="32.00" arrivalLane="Eo_0" arrivalPos="38.65" arrivalSpeed="12.05" duration="29.00" routeLength="94.09" waitingTime="11.00" waitingCount="2" stopTime="0.00" timeLoss="23.11" rerouteNo="0" devices="tripinfo_f42.0 routing_f42.0" vType="DEFAULT_VEHTYPE" speedFactor="1.16" vaporized=""/>
    <tripinfo id="f13.2" depart="6.00" departLane="Wi_0" departPos="5.10" departSpeed="0.00" departDelay="3.00" arrival="34.00" arrivalLane="So_0" arrivalPos="38.65" arrivalSpeed="10.56" duration="28.00" routeLength="81.56" waitingTime="13.00" waitingCount="1" stopTime="0.00" timeLoss="21.61" rerouteNo="0" devices="tripinfo_f13.2 routing_f13.2" vType="DEFAULT_VEHTYPE" speedFactor="1.01" vaporized=""/>
    <tripinfo id="f42.1" depart="13.00" departLane="Ni_0" departPos="5.10" departSpeed="0.00" departDelay="2.00" arrival="34.00" arrivalLane="Eo_0" arrivalPos="38.65" arrivalSpeed="11.74" duration="21.00" routeLength="94.09" waitingTime="3.00" waitingCount="1" stopTime="0.00" timeLoss="14.56" rerouteNo="0" devices="tripinfo_f42.1 routing_f42.1" vType="DEFAULT_VEHTYPE" speedFactor="1.09" vaporized=""/>
    <tripinfo id="f12.0" depart="9.00" departLane="Wi_0" departPos="5.10" departSpeed="0.00" departDelay="5.00" arrival="35.00" arrivalLane="Eo_1" arrivalPos="38.65" arrivalSpeed="12.43" duration="26.00" routeLength="95.21" waitingTime="8.00" waitingCount="1" stopTime="0.00" timeLoss="19.78" rerouteNo="0" devices="tripinfo_f12.0 routing_f12.0" vType="DEFAULT_VEHTYPE" speedFactor="1.13" vaporized=""/>
    <tripinfo id="f13.3" depart="12.00" departLane="Wi_0" departPos="5.10" departSpeed="0.00" departDelay="8.00" arrival="36.00" arrivalLane="So_0" arrivalPos="38.65" arrivalSpeed="9.49" duration="24.00" routeLength="81.56" waitingTime="9.00" waitingCount="1" stopTime="0.00" timeLoss="17.41" rerouteNo="0" devices="tripinfo_f13.3 routing_f13.3" vType="DEFAULT_VEHTYPE" speedFactor="0.93" vaporized=""/>
    <tripinfo id="f21.0" depart="0.00" departLane="Ei_0" departPos="5.10" departSpeed="0.00" departDelay="0.00" arrival="38.00" arrivalLane="Wo_0" arrivalPos="38.65" arrivalSpeed="10.11" duration="38.00" routeLength="95.21" waitingTime="19.00" waitingCount="1" stopTime="0.00" timeLoss="30.31" rerouteNo="0" devices="tripinfo_f21.0 routing_f21.0" vType="DEFAULT_VEHTYPE" speedFactor="0.94" vaporized=""/>
    <tripinfo id="f24.0" depart="4.00" departLane="Ei_0" departPos="5.10" departSpeed="0.00" departDelay="4.00" arrival="38.00" arrivalLane="No_0" arrivalPos="38.65" arrivalSpeed="10.99" duration="34.00" routeLength="81.56" waitingTime="17.00" waitingCount="1" stopTime="0.00" timeLoss="28.18" rerouteNo="0" devices="tripinfo_f24.0 routing_f24.0" vType="DEFAULT_VEHTYPE" speedFactor="1.08" vaporized=""/>
    <tripinfo id="f21.1" depart="7.00" departLane="Ei_0" departPos="5.10" departSpeed="0.00" departDelay="6.00" arrival="38.00" arrivalLane="Wo_1" arrivalPos="38.65" arrivalSpeed="9.24" duration="31.00" routeLength="95.21" waitingTime="13.00" waitingCount="1" stopTime="0.00" timeLoss="23.50" rerouteNo="0" devices="tripinfo_f21.1 routing_f21.1" vType="DEFAULT_VEHTYPE" speedFactor="0.94" vaporized=""/>
    <tripinfo id="f12.1" depart="15.00" departLane="Wi_0" departPos="5.10" departSpeed="0.00" departDelay="10.00" arrival="38.00" arrivalLane="Eo_1" arrivalPos="38.65" arrivalSpeed="10.96" duration="23.00" routeLength="95.21" waitingTime="5.00" waitingCount="1" stopTime="0.00" timeLoss="15.57" rerouteNo="0" devices="tripinfo_f12.1 routing_f12.1" vType="DEFAULT_VEHTYPE" speedFactor="1.02" vaporized=""/>
    <tripinfo id="f13.4" depart="18.00" departLane="Wi_0" departPos="5.10" departSpeed="0.00" departDelay="13.00" arrival="39.00" arrivalLane="So_0" arrivalPos="38.65" arrivalSpeed="9.93" duration="21.00" routeLength="81.56" waitingTime="5.00" waitingCount="1" stopTime="0.00" timeLoss="14.06" rerouteNo="0" devices="tripinfo_f13.4 routing_f13.4" vType="DEFAULT_VEHTYPE" speedFactor="0.97" vaporized=""/>
    <tripinfo id="f21.2" depart="11.00" departLane="Ei_0" departPos="5.10" departSpeed="0.00" departDelay="9.00" arrival="40.00" arrivalLane="Wo_1" arrivalPos="38.65" arrivalSpeed="11.19" duration="29.00" routeLength="95.21" waitingTime="8.00" waitingCount="1" stopTime="0.00" timeLoss="22.31" rerouteNo="0" devices="tripinfo_f21.2 routing_f21.2" vType="DEFAULT_VEHTYPE" speedFactor="1.12" vaporized=""/>
    <tripinfo id="f12.2" depart="21.00" departLane="Wi_0" departPos="5.10" departSpeed="0.00" departDelay="15.00" arrival="40.00" arrivalLane="Eo_1" arrivalPos="38.65" arrivalSpeed="11.37" duration="19.00" routeLength="95.21" waitingTime="2.00" waitingCount="1" stopTime="0.00" timeLoss="11.92" rerouteNo="0" devices="tripinfo_f12.2 routing_f12.2" vType="DEFAULT_VEHTYPE" speedFactor="1.09" vaporized=""/>
    <tripinfo id="f24.1" depart="15.00" departLane="Ei_0" departPos="5.10" departSpeed="0.00" departDelay="13.00" arrival="41.00" arrivalLane="No_0" arrivalPos="38.65" arrivalSpeed="9.41" duration="26.00" routeLength="81.56" waitingTime="9.00" waitingCount="1" stopTime="0.00" timeLoss="18.98" rerouteNo="0" devices="tripinfo_f24.1 routing_f24.1" vType="DEFAULT_VEHTYPE" speedFactor="0.93" vaporized=""/>
    <tripinfo id="f13.5" depart="24.00" departLane="Wi_0" departPos="5.10" departSpeed="0.00" departDelay="18.00" arrival="41.00" arrivalLane="So_0" arrivalPos="38.65" arrivalSpeed="11.12" duration="17.00" routeLength="81.56" waitingTime="1.00" waitingCount="1" stopTime="0.00" timeLoss="10.31" rerouteNo="0" devices="tripinfo_f13.5 routing_f13.5" vType="DEFAULT_VEHTYPE" speedFactor="1.04" vaporized=""/>
    <tripinfo id="f21.3" depart="18.00" departLane="Ei_0" departPos="5.10" departSpeed="0.00" departDelay="15.00" arrival="42.00" arrivalLane="Wo_1" arrivalPos="38.65" arrivalSpeed="10.13" duration="24.00" routeLength="95.21" waitingTime="4.00" waitingCount="1" stopTime="0.00" timeLoss="16.36" rerouteNo="0" devices="tripinfo_f21.3 routing_f21.3" vType="DEFAULT_VEHTYPE" speedFactor="0.98" vaporized=""/>
    <tripinfo id="f21.4" depart="22.00" departLane="Ei_0" departPos="5.10" departSpeed="0.00" departDelay="18.00" arrival="43.00" arrivalLane="Wo_0" arrivalPos="38.65" arrivalSpeed="11.96" duration="21.00" routeLength="95.21" waitingTime="5.00" waitingCount="1" stopTime="0.00" timeLoss="14.51" rerouteNo="0" devices="tripinfo_f21.4 routing_f21.4" vType="DEFAULT_VEHTYPE" speedFactor="1.18" vaporized=""/>
    <tripinfo id="f13.6" depart="27.00" departLane="Wi_0" departPos="5.10" departSpeed="0.00" departDelay="20.00" arrival="43.00" arrivalLane="So_0" arrivalPos="38.65" arrivalSpeed="9.35" duration="16.00" routeLength="81.56" waitingTime="1.00" waitingCount="1" stopTime="0.00" timeLoss="8.80" rerouteNo="0" devices="tripinfo_f13.6 routing_f13.6" vType="DEFAULT_VEHTYPE" speedFactor="0.85" vaporized=""/>
    <tripinfo id="f32.3" depart="22.00" departLane="Si_0" departPos="5.10" departSpeed="0.00" departDelay="19.00" arrival="48.00" arrivalLane="Eo_0" arrivalPos="38.65" arrivalSpeed="9.08" duration="26.00" routeLength="81.56" waitingTime="11.00" waitingCount="1" stopTime="0.00" timeLoss="19.50" rerouteNo="0" devices="tripinfo_f32.3 routing_f32.3" vType="DEFAULT_VEHTYPE" speedFactor="0.92" vaporized=""/>
    <tripinfo id="f41.4" depart="17.00" departLane="Ni_0" departPos="5.10" departSpeed="0.00" departDelay="2.00" arrival="48.00" arrivalLane="Wo_0" arrivalPos="38.65" arrivalSpeed="11.41" duration="31.00" routeLength="81.56" waitingTime="15.00" waitingCount="1" stopTime="0.00" timeLoss="25.46" rerouteNo="0" devices="tripinfo_f41.4 routing_f41.4" vType="DEFAULT_VEHTYPE" speedFactor="1.07" vaporized=""/>
    <tripinfo id="f32.4" depart="26.00" departLane="Si_0" departPos="5.10" departSpeed="0.00" departDelay="22.00" arrival="50.00" arrivalLane="Eo_0" arrivalPos="38.65" arrivalSpeed="12.23" duration="24.00" routeLength="81.56" waitingTime="10.00" waitingCount="1" stopTime="0.00" timeLoss="18.76" rerouteNo="0" devices="tripinfo_f32.4 routing_f32.4" vType="DEFAULT_VEHTYPE" speedFactor="1.17" vaporized=""/>
    <tripinfo id="f41.5" depart="22.00" departLane="Ni_0" departPos="5.10" departSpeed="0.00" departDelay="2.00" arrival="50.00" arrivalLane="Wo_0" arrivalPos="38.65" arrivalSpeed="11.38" duration="28.00" routeLength="81.56" waitingTime="13.00" waitingCount="1" stopTime="0.00" timeLoss="22.49" rerouteNo="0" devices="tripinfo_f41.5 routing_f41.5" vType="DEFAULT_VEHTYPE" speedFactor="1.14" vaporized=""/>
    <tripinfo id="f41.6" depart="25.00" departLane="Ni_0" departPos="5.10" departSpeed="0.00" departDelay="4.00" arrival="52.00" arrivalLane="Wo_0" arrivalPos="38.65" arrivalSpeed="11.70" duration="27.00" routeLength="81.56" waitingTime="13.00" waitingCount="1" stopTime="0.00" timeLoss="21.24" rerouteNo="0" devices="tripinfo_f41.6 routing_f41.6" vType="DEFAULT_VEHTYPE" speedFactor="1.07" vaporized=""/>
    <tripinfo id="f32.5" depart="30.00" departLane="Si_0" departPos="5.10" departSpeed="0.00" departDelay="25.00" arrival="53.00" arrivalLane="Eo_0" arrivalPos="38.65" arrivalSpeed="10.11" duration="23.00" routeLength="81.56" waitingTime="7.00" waitingCount="1" stopTime="0.00" timeLoss="16.07" rerouteNo="0" devices="tripinfo_f32.5 routing_f32.5" vType="DEFAULT_VEHTYPE" speedFactor="0.96" vaporized=""/>
    <tripinfo id="f34.3" depart="37.00" departLane="Si_0" departPos="5.10" departSpeed="0.00" departDelay="30.00" arrival="53.00" arrivalLane="No_1" arrivalPos="38.65" arrivalSpeed="11.36" duration="16.00" routeLength="95.21" waitingTime="1.00" waitingCount="1" stopTime="0.00" timeLoss="9.52" rerouteNo="0" devices="tripinfo_f34.3 routing_f34.3" vType="DEFAULT_VEHTYPE" speedFactor="1.10" vaporized=""/>
    <tripinfo id="f41.7" depart="29.00" departLane="Ni_0" departPos="5.10" departSpeed="0.00" departDelay="7.00" arrival="54.00" arrivalLane="Wo_0" arrivalPos="38.65" arrivalSpeed="11.87" duration="25.00" routeLength="81.56" waitingTime="9.00" waitingCount="1" stopTime="0.00" timeLoss="19.46" rerouteNo="0" devices="tripinfo_f41.7 routing_f41.7" vType="DEFAULT_VEHTYPE" speedFactor="1.14" vaporized=""/>
    <tripinfo id="f32.6" depart="34.00" departLane="Si_0" departPos="5.10" departSpeed="0.00" departDelay="28.00" arrival="56.00" arrivalLane="Eo_0" arrivalPos="38.65" arrivalSpeed="9.32" duration="22.00" routeLength="81.56" waitingTime="4.00" waitingCount="1" stopTime="0.00" timeLoss="14.15" rerouteNo="0" devices="tripinfo_f32.6 routing_f32.6" vType="DEFAULT_VEHTYPE" speedFactor="0.88" vaporized=""/>
    <tripinfo id="f41.8" depart="37.00" departLane="Ni_0" departPos="5.10" departSpeed="0.00" departDelay="10.00" arrival="56.00" arrivalLane="Wo_0" arrivalPos="38.65" arrivalSpeed="11.46" duration="19.00" routeLength="81.56" waitingTime="6.00" waitingCount="1" stopTime="0.00" timeLoss="13.17" rerouteNo="0" devices="tripinfo_f41.8 routing_f41.8" vType="DEFAULT_VEHTYPE" speedFactor="1.10" vaporized=""/>
    <tripinfo id="f42.2" depart="15.00" departLane="Ni_0" departPos="5.10" departSpeed="0.00" departDelay="1.00" arrival="58.00" arrivalLane="Eo_0" arrivalPos="38.65" arrivalSpeed="9.23" duration="43.00" routeLength="94.09" waitingTime="18.00" waitingCount="3" stopTime="0.00" timeLoss="35.46" rerouteNo="0" devices="tripinfo_f42.2 routing_f42.2" vType="DEFAULT_VEHTYPE" speedFactor="0.91" vaporized=""/>
    <tripinfo id="f31.2" depart="14.00" departLane="Si_0" departPos="5.10" departSpeed="0.00" departDelay="12.00" arrival="59.00" arrivalLane="Wo_0" arrivalPos="38.65" arrivalSpeed="10.28" duration="45.00" routeLength="94.09" waitingTime="24.00" waitingCount="3" stopTime="0.00" timeLoss="37.52" rerouteNo="0" devices="tripinfo_f31.2 routing_f31.2" vType="DEFAULT_VEHTYPE" speedFactor="0.94" vaporized=""/>
    <tripinfo id="f42.3" depart="20.00" departLane="Ni_0" departPos="5.10" departSpeed="0.00" departDelay="4.00" arrival="60.00" arrivalLane="Eo_0" arrivalPos="38.65" arrivalSpeed="11.24" duration="40.00" routeLength="94.09" waitingTime="16.00" waitingCount="3" stopTime="0.00" timeLoss="33.49" rerouteNo="0" devices="tripinfo_f42.3 routing_f42.3" vType="DEFAULT_VEHTYPE" speedFactor="1.10" vaporized=""/>
    <tripinfo id="f31.5" depart="29.00" departLane="Si_0" departPos="5.10" departSpeed="0.00" departDelay="24.00" arrival="61.00" arrivalLane="Wo_0" arrivalPos="38.65" arrivalSpeed="11.17" duration="32.00" routeLength="94.09" waitingTime="10.00" waitingCount="2" stopTime="0.00" timeLoss="24.99" rerouteNo="0" devices="tripinfo_f31.5 routing_f31.5" vType="DEFAULT_VEHTYPE" speedFactor="1.03" vaporized=""/>
    <tripinfo id="f32.7" depart="38.00" departLane="Si_0" departPos="5.10" departSpeed="0.00" departDelay="31.00" arrival="63.00" arrivalLane="Eo_0" arrivalPos="38.65" arrivalSpeed="10.64" duration="25.00" routeLength="81.56" waitingTime="4.00" waitingCount="1" stopTime="0.00" timeLoss="18.69" rerouteNo="0" devices="tripinfo_f32.7 routing_f32.7" vType="DEFAULT_VEHTYPE" speedFactor="1.00" vaporized=""/>
    <tripinfo id="f31.3" depart="21.00" departLane="Si_0" departPos="5.10" departSpeed="0.00" departDelay="18.00" arrival="65.00" arrivalLane="Wo_0" arrivalPos="38.65" arrivalSpeed="8.52" duration="44.00" routeLength="94.09" waitingTime="20.00" waitingCount="3" stopTime="0.00" timeLoss="35.54" rerouteNo="0" devices="tripinfo_f31.3 routing_f31.3" vType="DEFAULT_VEHTYPE" speedFactor="0.87" vaporized=""/>
    <tripinfo id="f32.8" depart="53.00" departLane="Si_0" departPos="5.10" departSpeed="0.00" departDelay="44.00" arrival="65.00" arrivalLane="Eo_0" arrivalPos="38.65" arrivalSpeed="8.95" duration="12.00" routeLength="81.56" waitingTime="0.00" waitingCount="0" stopTime="0.00" timeLoss="5.31" rerouteNo="0" devices="tripinfo_f32.8 routing_f32.8" vType="DEFAULT_VEHTYPE" speedFactor="0.91" vaporized=""/>
    <tripinfo id="f31.4" depart="25.00" departLane="Si_0" departPos="5.10" departSpeed="0.00" departDelay="21.00" arrival="67.00" arrivalLane="Wo_0" arrivalPos="38.65" arrivalSpeed="9.88" duration="42.00" routeLength="94.09" waitingTime="19.00" waitingCount="3" stopTime="0.00" timeLoss="34.33" rerouteNo="0" devices="tripinfo_f31.4 routing_f31.4" vType="DEFAULT_VEHTYPE" speedFactor="1.01" vaporized=""/>
    <tripinfo id="f34.4" depart="56.00" departLane="Si_0" departPos="5.10" departSpeed="0.00" departDelay="46.00" arrival="68.00" arrivalLane="No_0" arrivalPos="38.65" arrivalSpeed="10.18" duration="12.00" routeLength="95.21" waitingTime="0.00" waitingCount="0" stopTime="0.00" timeLoss="4.61" rerouteNo="0" devices="tripinfo_f34.4 routing_f34.4" vType="DEFAULT_VEHTYPE" speedFactor="0.97" vaporized=""/>
    <tripinfo id="f31.7" depart="49.00" departLane="Si_0" departPos="5.10" departSpeed="0.00" departDelay="41.00" arrival="69.00" arrivalLane="Wo_0" arrivalPos="38.65" arrivalSpeed="10.91" duration="20.00" routeLength="94.09" waitingTime="0.00" waitingCount="0" stopTime="0.00" timeLoss="13.13" rerouteNo="0" devices="tripinfo_f31.7 routing_f31.7" vType="DEFAULT_VEHTYPE" speedFactor="1.08" vaporized=""/>
    <tripinfo id="f32.9" depart="59.00" departLane="Si_0" departPos="5.10" departSpeed="0.00" departDelay="49.00" arrival="70.00" arrivalLane="Eo_0" arrivalPos="38.65" arrivalSpeed="9.59" duration="11.00" routeLength="81.56" waitingTime="0.00" waitingCount="0" stopTime="0.00" timeLoss="4.02" rerouteNo="0" devices="tripinfo_f32.9 routing_f32.9" vType="DEFAULT_VEHTYPE" speedFactor="0.94" vaporized=""/>
    <tripinfo id="f31.6" depart="33.00" departLane="Si_0" departPos="5.10" departSpeed="0.00" departDelay="27.00" arrival="71.00" arrivalLane="Wo_0" arrivalPos="38.65" arrivalSpeed="9.42" duration="38.00" routeLength="94.09" waitingTime="12.00" waitingCount="4" stopTime="0.00" timeLoss="30.29" rerouteNo="0" devices="tripinfo_f31.6 routing_f31.6" vType="DEFAULT_VEHTYPE" speedFactor="0.90" vaporized=""/>
    <tripinfo id="f21.5" depart="25.00" departLane="Ei_0" departPos="5.10" departSpeed="0.00" departDelay="20.00" arrival="77.00" arrivalLane="Wo_0" arrivalPos="38.65" arrivalSpeed="12.13" duration="52.00" routeLength="95.21" waitingTime="32.00" waitingCount="2" stopTime="0.00" timeLoss="45.94" rerouteNo="0" devices="tripinfo_f21.5 routing_f21.5" vType="DEFAULT_VEHTYPE" speedFactor="1.18" vaporized=""/>
    <tripinfo id="f21.6" depart="40.00" departLane="Ei_0" departPos="5.10" departSpeed="0.00" departDelay="34.00" arrival="77.00" arrivalLane="Wo_1" arrivalPos="38.65" arrivalSpeed="10.44" duration="37.00" routeLength="95.21" waitingTime="19.00" waitingCount="3" stopTime="0.00" timeLoss="30.42" rerouteNo="0" devices="tripinfo_f21.6 routing_f21.6" vType="DEFAULT_VEHTYPE" speedFactor="1.04" vaporized=""/>
    <tripinfo id="f13.7" depart="34.00" departLane="Wi_0" departPos="5.10" departSpeed="0.00" departDelay="26.00" arrival="77.00" arrivalLane="So_0" arrivalPos="38.65" arrivalSpeed="9.84" duration="43.00" routeLength="81.56" waitingTime="26.00" waitingCount="1" stopTime="0.00" timeLoss="35.72" rerouteNo="0" devices="tripinfo_f13.7 routing_f13.7" vType="DEFAULT_VEHTYPE" speedFactor="0.90" vaporized=""/>
    <tripinfo id="f13.8" depart="39.00" departLane="Wi_0" departPos="5.10" departSpeed="0.00" departDelay="30.00" arrival="79.00" arrivalLane="So_0" arrivalPos="38.65" arrivalSpeed="10.14" duration="40.00" routeLength="81.56" waitingTime="25.00" waitingCount="1" stopTime="0.00" timeLoss="33.52" rerouteNo="0" devices="tripinfo_f13.8 routing_f13.8" vType="DEFAULT_VEHTYPE" speedFactor="1.02" vaporized=""/>
    <tripinfo id="f24.2" depart="37.00" departLane="Ei_0" departPos="5.10" departSpeed="0.00" departDelay="32.00" arrival="80.00" arrivalLane="No_0" arrivalPos="38.65" arrivalSpeed="8.91" duration="43.00" routeLength="81.56" waitingTime="26.00" waitingCount="1" stopTime="0.00" timeLoss="35.46" rerouteNo="0" devices="tripinfo_f24.2 routing_f24.2" vType="DEFAULT_VEHTYPE" speedFactor="0.90" vaporized=""/>
    <tripinfo id="f13.9" depart="43.00" departLane="Wi_0" departPos="5.10" departSpeed="0.00" departDelay="33.00" arrival="81.00" arrivalLane="So_0" arrivalPos="38.65" arrivalSpeed="10.82" duration="38.00" routeLength="81.56" waitingTime="23.00" waitingCount="1" stopTime="0.00" timeLoss="31.39" rerouteNo="0" devices="tripinfo_f13.9 routing_f13.9" vType="DEFAULT_VEHTYPE" speedFactor="1.02" vaporized=""/>
    <tripinfo id="f14.0" depart="5.00" departLane="Wi_0" departPos="5.10" departSpeed="0.00" departDelay="2.00" arrival="82.00" arrivalLane="No_0" arrivalPos="38.65" arrivalSpeed="11.17" duration="77.00" routeLength="94.09" waitingTime="57.00" waitingCount="2" stopTime="0.00" timeLoss="70.19" rerouteNo="0" devices="tripinfo_f14.0 routing_f14.0" vType="DEFAULT_VEHTYPE" speedFactor="1.02" vaporized=""/>
    <tripinfo id="f13.10" depart="46.00" departLane="Wi_0" departPos="5.10" departSpeed="0.00" departDelay="35.00" arrival="83.00" arrivalLane="So_0" arrivalPos="38.65" arrivalSpeed="10.60" duration="37.00" routeLength="81.56" waitingTime="21.00" waitingCount="1" stopTime="0.00" timeLoss="30.52" rerouteNo="0" devices="tripinfo_f13.10 routing_f13.10" vType="DEFAULT_VEHTYPE" speedFactor="1.06" vaporized=""/>
    <tripinfo id="f14.1" depart="38.00" departLane="Wi_0" departPos="5.10" departSpeed="0.00" departDelay="29.00" arrival="85.00" arrivalLane="No_0" arrivalPos="38.65" arrivalSpeed="12.01" duration="47.00" routeLength="94.09" waitingTime="24.00" waitingCount="1" stopTime="0.00" timeLoss="40.84" rerouteNo="0" devices="tripinfo_f14.1 routing_f14.1" vType="DEFAULT_VEHTYPE" speedFactor="1.12" vaporized=""/>
    <tripinfo id="f23.0" depart="3.00" departLane="Ei_0" departPos="5.10" departSpeed="0.00" departDelay="3.00" arrival="86.00" arrivalLane="So_0" arrivalPos="38.65" arrivalSpeed="10.43" duration="83.00" routeLength="94.09" waitingTime="62.00" waitingCount="2" stopTime="0.00" timeLoss="75.91" rerouteNo="0" devices="tripinfo_f23.0 routing_f23.0" vType="DEFAULT_VEHTYPE" speedFactor="1.01" vaporized=""/>
    <tripinfo id="f14.2" depart="42.00" departLane="Wi_0" departPos="5.10" departSpeed="0.00" departDelay="32.00" arrival="87.00" arrivalLane="No_0" arrivalPos="38.65" arrivalSpeed="10.41" duration="45.00" routeLength="94.09" waitingTime="23.00" waitingCount="1" stopTime="0.00" timeLoss="38.30" rerouteNo="0" devices="tripinfo_f14.2 routing_f14.2" vType="DEFAULT_VEHTYPE" speedFactor="1.04" vaporized=""/>
    <tripinfo id="f23.1" depart="10.00" departLane="Ei_0" departPos="5.10" departSpeed="0.00" departDelay="9.00" arrival="89.00" arrivalLane="So_0" arrivalPos="38.65" arrivalSpeed="8.93" duration="79.00" routeLength="94.09" waitingTime="56.00" waitingCount="2" stopTime="0.00" timeLoss="70.74" rerouteNo="0" devices="tripinfo_f23.1 routing_f23.1" vType="DEFAULT_VEHTYPE" speedFactor="0.86" vaporized=""/>
    <tripinfo id="f23.2" depart="14.00" departLane="Ei_0" departPos="5.10" departSpeed="0.00" departDelay="12.00" arrival="91.00" arrivalLane="So_0" arrivalPos="38.65" arrivalSpeed="10.93" duration="77.00" routeLength="94.09" waitingTime="54.00" waitingCount="2" stopTime="0.00" timeLoss="69.72" rerouteNo="0" devices="tripinfo_f23.2 routing_f23.2" vType="DEFAULT_VEHTYPE" speedFactor="0.99" vaporized=""/>
    <tripinfo id="f23.3" depart="20.00" departLane="Ei_0" departPos="5.10" departSpeed="0.00" departDelay="17.00" arrival="95.00" arrivalLane="So_0" arrivalPos="38.65" arrivalSpeed="9.39" duration="75.00" routeLength="94.09" waitingTime="48.00" waitingCount="3" stopTime="0.00" timeLoss="67.28" rerouteNo="0" devices="tripinfo_f23.3 routing_f23.3" vType="DEFAULT_VEHTYPE" speedFactor="0.89" vaporized=""/>
    <tripinfo id="f14.3" depart="83.00" departLane="Wi_0" departPos="5.10" departSpeed="0.00" departDelay="68.00" arrival="95.00" arrivalLane="No_0" arrivalPos="38.65" arrivalSpeed="11.60" duration="12.00" routeLength="94.09" waitingTime="0.00" waitingCount="0" stopTime="0.00" timeLoss="5.73" rerouteNo="0" devices="tripinfo_f14.3 routing_f14.3" vType="DEFAULT_VEHTYPE" speedFactor="1.12" vaporized=""/>
    <tripinfo id="f23.4" depart="24.00" departLane="Ei_0" departPos="5.10" departSpeed="0.00" departDelay="20.00" arrival="98.00" arrivalLane="So_0" arrivalPos="38.65" arrivalSpeed="12.53" duration="74.00" routeLength="94.09" waitingTime="47.00" waitingCount="3" stopTime="0.00" timeLoss="67.38" rerouteNo="0" devices="tripinfo_f23.4 routing_f23.4" vType="DEFAULT_VEHTYPE" speedFactor="1.15" vaporized=""/>
    <tripinfo id="f14.4" depart="87.00" departLane="Wi_0" departPos="5.10" departSpeed="0.00" departDelay="71.00" arrival="99.00" arrivalLane="No_0" arrivalPos="38.65" arrivalSpeed="10.30" duration="12.00" routeLength="94.09" waitingTime="0.00" waitingCount="0" stopTime="0.00" timeLoss="4.37" rerouteNo="0" devices="tripinfo_f14.4 routing_f14.4" vType="DEFAULT_VEHTYPE" speedFactor="1.01" vaporized=""/>