<?xml version="1.0" encoding="UTF-8"?>

<!-- generated on Sat 09 Nov 2019 11:35:15 PM PST by Eclipse SUMO GUI Version v1_3_1+0752-841bf6b
<configuration xmlns:xsi="http://www.w3.org/2001/XMLSchema-instance" xsi:noNamespaceSchemaLocation="http://sumo.dlr.de/xsd/sumoConfiguration.xsd">

    <input>
        <net-file value="data/cross.net.xml"/>
        <route-files value="data/cross.rou.xml"/>
        <additional-files value="data/cross.det.xml"/>
    </input>

    <output>
        <tripinfo-output value="tripinfo.xml"/>
    </output>

    <time>
        <begin value="0"/>
    </time>

    <report>
        <verbose value="true"/>
        <no-step-log value="true"/>
    </report>

    <traci_server>
        <remote-port value="60507"/>
    </traci_server>

</configuration>
-->

<tripinfos xmlns:xsi="http://www.w3.org/2001/XMLSchema-instance" xsi:noNamespaceSchemaLocation="http://sumo.dlr.de/xsd/tripinfo_file.xsd">
    <tripinfo id="f13.0" depart="0.00" departLane="1i_0" departPos="5.10" departSpeed="0.00" departDelay="0.00" arrival="81.00" arrivalLane="3o_0" arrivalPos="488.65" arrivalSpeed="11.08" duration="81.00" routeLength="980.11" waitingTime="2.00" waitingCount="1" stopTime="0.00" timeLoss="15.20" rerouteNo="0" devices="tripinfo_f13.0 routing_f13.0" vType="DEFAULT_VEHTYPE" speedFactor="1.06" vaporized=""/>
    <tripinfo id="f13.1" depart="6.00" departLane="1i_0" departPos="5.10" departSpeed="0.00" departDelay="3.00" arrival="81.00" arrivalLane="3o_1" arrivalPos="488.65" arrivalSpeed="11.66" duration="75.00" routeLength="980.11" waitingTime="0.00" waitingCount="0" stopTime="0.00" timeLoss="12.33" rerouteNo="0" devices="tripinfo_f13.1 routing_f13.1" vType="DEFAULT_VEHTYPE" speedFactor="1.12" vaporized=""/>
    <tripinfo id="f12.2" depart="12.00" departLane="1i_0" departPos="5.10" departSpeed="0.00" departDelay="7.00" arrival="81.00" arrivalLane="2o_0" arrivalPos="488.65" arrivalSpeed="12.59" duration="69.00" routeLength="994.90" waitingTime="0.00" waitingCount="0" stopTime="0.00" timeLoss="7.40" rerouteNo="0" devices="tripinfo_f12.2 routing_f12.2" vType="DEFAULT_VEHTYPE" speedFactor="1.16" vaporized=""/>
    <tripinfo id="f12.0" depart="3.00" departLane="1i_0" departPos="5.10" departSpeed="0.00" departDelay="2.00" arrival="83.00" arrivalLane="2o_0" arrivalPos="488.65" arrivalSpeed="10.35" duration="80.00" routeLength="994.90" waitingTime="0.00" waitingCount="0" stopTime="0.00" timeLoss="11.00" rerouteNo="0" devices="tripinfo_f12.0 routing_f12.0" vType="DEFAULT_VEHTYPE" speedFactor="1.03" vaporized=""/>
    <tripinfo id="f24.0" depart="3.00" departLane="2i_0" departPos="5.10" departSpeed="0.00" departDelay="3.00" arrival="85.00" arrivalLane="4o_0" arrivalPos="488.65" arrivalSpeed="10.39" duration="82.00" routeLength="980.11" waitingTime="0.00" waitingCount="0" stopTime="0.00" timeLoss="12.97" rerouteNo="0" devices="tripinfo_f24.0 routing_f24.0" vType="DEFAULT_VEHTYPE" speedFactor="1.01" vaporized=""/>
    <tripinfo id="f21.0" depart="0.00" departLane="2i_0" departPos="5.10" departSpeed="0.00" departDelay="0.00" arrival="89.00" arrivalLane="1o_0" arrivalPos="488.65" arrivalSpeed="10.38" duration="89.00" routeLength="994.90" waitingTime="0.00" waitingCount="0" stopTime="0.00" timeLoss="12.89" rerouteNo="0" devices="tripinfo_f21.0 routing_f21.0" vType="DEFAULT_VEHTYPE" speedFactor="0.94" vaporized=""/>
    <tripinfo id="f13.2" depart="15.00" departLane="1i_0" departPos="5.10" departSpeed="0.00" departDelay="10.00" arrival="91.00" arrivalLane="3o_0" arrivalPos="488.65" arrivalSpeed="10.02" duration="76.00" routeLength="980.11" waitingTime="0.00" waitingCount="0" stopTime="0.00" timeLoss="7.53" rerouteNo="0" devices="tripinfo_f13.2 routing_f13.2" vType="DEFAULT_VEHTYPE" speedFactor="1.02" vaporized=""/>
    <tripinfo id="f12.1" depart="9.00" departLane="1i_0" departPos="5.10" departSpeed="0.00" departDelay="5.00" arrival="93.00" arrivalLane="2o_0" arrivalPos="488.65" arrivalSpeed="10.30" duration="84.00" routeLength="994.90" waitingTime="0.00" waitingCount="0" stopTime="0.00" timeLoss="8.32" rerouteNo="0" devices="tripinfo_f12.1 routing_f12.1" vType="DEFAULT_VEHTYPE" speedFactor="0.94" vaporized=""/>
    <tripinfo id="f23.0" depart="9.00" departLane="2i_0" departPos="5.10" departSpeed="0.00" departDelay="8.00" arrival="94.00" arrivalLane="3o_0" arrivalPos="488.65" arrivalSpeed="11.50" duration="85.00" routeLength="996.17" waitingTime="4.00" waitingCount="1" stopTime="0.00" timeLoss="16.62" rerouteNo="0" devices="tripinfo_f23.0 routing_f23.0" vType="DEFAULT_VEHTYPE" speedFactor="1.05" vaporized=""/>
    <tripinfo id="f21.3" depart="15.00" departLane="2i_0" departPos="5.10" departSpeed="0.00" departDelay="12.00" arrival="94.00" arrivalLane="1o_0" arrivalPos="488.65" arrivalSpeed="10.88" duration="79.00" routeLength="994.90" waitingTime="0.00" waitingCount="0" stopTime="0.00" timeLoss="7.35" rerouteNo="0" devices="tripinfo_f21.3 routing_f21.3" vType="DEFAULT_VEHTYPE" speedFactor="0.99" vaporized=""/>
    <tripinfo id="f21.4" depart="18.00" departLane="2i_0" departPos="5.10" departSpeed="0.00" departDelay="13.00" arrival="97.00" arrivalLane="1o_1" arrivalPos="488.65" arrivalSpeed="10.44" duration="79.00" routeLength="994.90" waitingTime="0.00" waitingCount="0" stopTime="0.00" timeLoss="8.27" rerouteNo="0" devices="tripinfo_f21.4 routing_f21.4" vType="DEFAULT_VEHTYPE" speedFactor="1.01" vaporized=""/>
    <tripinfo id="f12.4" depart="24.00" departLane="1i_0" departPos="5.10" departSpeed="0.00" departDelay="14.00" arrival="97.00" arrivalLane="2o_0" arrivalPos="488.65" arrivalSpeed="11.61" duration="73.00" routeLength="994.90" waitingTime="0.00" waitingCount="0" stopTime="0.00" timeLoss="8.62" rerouteNo="0" devices="tripinfo_f12.4 routing_f12.4" vType="DEFAULT_VEHTYPE" speedFactor="1.10" vaporized=""/>
    <tripinfo id="f21.6" depart="30.00" departLane="2i_0" departPos="5.10" departSpeed="0.00" departDelay="22.00" arrival="100.00" arrivalLane="1o_1" arrivalPos="488.65" arrivalSpeed="12.32" duration="70.00" routeLength="994.90" waitingTime="0.00" waitingCount="0" stopTime="0.00" timeLoss="9.36" rerouteNo="0" devices="tripinfo_f21.6 routing_f21.6" vType="DEFAULT_VEHTYPE" speedFactor="1.17" vaporized=""/>
    <tripinfo id="f21.1" depart="6.00" departLane="2i_0" departPos="5.10" departSpeed="0.00" departDelay="5.00" arrival="101.00" arrivalLane="1o_0" arrivalPos="488.65" arrivalSpeed="8.45" duration="95.00" routeLength="994.90" waitingTime="0.00" waitingCount="0" stopTime="0.00" timeLoss="9.92" rerouteNo="0" devices="tripinfo_f21.1 routing_f21.1" vType="DEFAULT_VEHTYPE" speedFactor="0.83" vaporized=""/>
    <tripinfo id="f21.2" depart="12.00" departLane="2i_0" departPos="5.10" departSpeed="0.00" departDelay="10.00" arrival="104.00" arrivalLane="1o_0" arrivalPos="488.65" arrivalSpeed="8.73" duration="92.00" routeLength="994.90" waitingTime="0.00" waitingCount="0" stopTime="0.00" timeLoss="9.24" rerouteNo="0" devices="tripinfo_f21.2 routing_f21.2" vType="DEFAULT_VEHTYPE" speedFactor="0.86" vaporized=""/>
    <tripinfo id="f24.2" depart="33.00" departLane="2i_0" departPos="5.10" departSpeed="0.00" departDelay="22.00" arrival="105.00" arrivalLane="4o_0" arrivalPos="488.65" arrivalSpeed="11.69" duration="72.00" routeLength="980.11" waitingTime="0.00" waitingCount="0" stopTime="0.00" timeLoss="8.08" rerouteNo="0" devices="tripinfo_f24.2 routing_f24.2" vType="DEFAULT_VEHTYPE" speedFactor="1.09" vaporized=""/>
    <tripinfo id="f24.1" depart="27.00" departLane="2i_0" departPos="5.10" departSpeed="0.00" departDelay="21.00" arrival="109.00" arrivalLane="4o_0" arrivalPos="488.65" arrivalSpeed="10.29" duration="82.00" routeLength="980.11" waitingTime="0.00" waitingCount="0" stopTime="0.00" timeLoss="8.63" rerouteNo="0" devices="tripinfo_f24.1 routing_f24.1" vType="DEFAULT_VEHTYPE" speedFactor="0.95" vaporized=""/>
    <tripinfo id="f21.5" depart="21.00" departLane="2i_0" departPos="5.10" departSpeed="0.00" departDelay="15.00" arrival="111.00" arrivalLane="1o_0" arrivalPos="488.65" arrivalSpeed="8.82" duration="90.00" routeLength="994.90" waitingTime="0.00" waitingCount="0" stopTime="0.00" timeLoss="8.56" rerouteNo="0" devices="tripinfo_f21.5 routing_f21.5" vType="DEFAULT_VEHTYPE" speedFactor="0.87" vaporized=""/>
    <tripinfo id="f14.0" depart="21.00" departLane="1i_0" departPos="5.10" departSpeed="0.00" departDelay="12.00" arrival="111.00" arrivalLane="4o_0" arrivalPos="488.65" arrivalSpeed="10.78" duration="90.00" routeLength="996.17" waitingTime="8.00" waitingCount="1" stopTime="0.00" timeLoss="20.65" rerouteNo="0" devices="tripinfo_f14.0 routing_f14.0" vType="DEFAULT_VEHTYPE" speedFactor="1.02" vaporized=""/>
    <tripinfo id="f12.3" depart="18.00" departLane="1i_0" departPos="5.10" departSpeed="0.00" departDelay="12.00" arrival="113.00" arrivalLane="2o_0" arrivalPos="488.65" arrivalSpeed="8.30" duration="95.00" routeLength="994.90" waitingTime="0.00" waitingCount="0" stopTime="0.00" timeLoss="9.61" rerouteNo="0" devices="tripinfo_f12.3 routing_f12.3" vType="DEFAULT_VEHTYPE" speedFactor="0.83" vaporized=""/>
    <tripinfo id="f12.5" depart="30.00" departLane="1i_0" departPos="5.10" departSpeed="0.00" departDelay="19.00" arrival="113.00" arrivalLane="2o_1" arrivalPos="488.65" arrivalSpeed="9.86" duration="83.00" routeLength="994.90" waitingTime="0.00" waitingCount="0" stopTime="0.00" timeLoss="8.68" rerouteNo="0" devices="tripinfo_f12.5 routing_f12.5" vType="DEFAULT_VEHTYPE" speedFactor="0.96" vaporized=""/>
    <tripinfo id="f23.2" depart="36.00" departLane="2i_0" departPos="5.10" departSpeed="0.00" departDelay="24.00" arrival="114.00" arrivalLane="3o_0" arrivalPos="488.65" arrivalSpeed="10.89" duration="78.00" routeLength="996.17" waitingTime="0.00" waitingCount="0" stopTime="0.00" timeLoss="9.82" rerouteNo="0" devices="tripinfo_f23.2 routing_f23.2" vType="DEFAULT_VEHTYPE" speedFactor="1.04" vaporized=""/>
    <tripinfo id="f23.1" depart="24.00" departLane="2i_0" departPos="5.10" departSpeed="0.00" departDelay="18.00" arrival="117.00" arrivalLane="3o_0" arrivalPos="488.65" arrivalSpeed="9.18" duration="93.00" routeLength="996.17" waitingTime="2.00" waitingCount="1" stopTime="0.00" timeLoss="15.55" rerouteNo="0" devices="tripinfo_f23.1 routing_f23.1" vType="DEFAULT_VEHTYPE" speedFactor="0.92" vaporized=""/>
    <tripinfo id="f14.1" depart="27.00" departLane="1i_0" departPos="5.10" departSpeed="0.00" departDelay="17.00" arrival="120.00" arrivalLane="4o_0" arrivalPos="488.65" arrivalSpeed="9.52" duration="93.00" routeLength="996.17" waitingTime="0.00" waitingCount="0" stopTime="0.00" timeLoss="14.02" rerouteNo="0" devices="tripinfo_f14.1 routing_f14.1" vType="DEFAULT_VEHTYPE" speedFactor="0.90" vaporized=""/>
    <tripinfo id="f41.0" depart="0.00" departLane="4i_0" departPos="5.10" departSpeed="0.00" departDelay="0.00" arrival="126.00" arrivalLane="1o_0" arrivalPos="488.65" arrivalSpeed="10.74" duration="126.00" routeLength="980.11" waitingTime="47.00" waitingCount="1" stopTime="0.00" timeLoss="61.54" rerouteNo="0" devices="tripinfo_f41.0 routing_f41.0" vType="DEFAULT_VEHTYPE" speedFactor="1.08" vaporized=""/>
    <tripinfo id="f14.2" depart="39.00" departLane="1i_0" departPos="5.10" departSpeed="0.00" departDelay="24.00" arrival="126.00" arrivalLane="4o_0" arrivalPos="488.65" arrivalSpeed="9.03" duration="87.00" routeLength="996.17" waitingTime="0.00" waitingCount="0" stopTime="0.00" timeLoss="8.10" rerouteNo="0" devices="tripinfo_f14.2 routing_f14.2" vType="DEFAULT_VEHTYPE" speedFactor="0.90" vaporized=""/>
    <tripinfo id="f34.1" depart="7.00" departLane="3i_0" departPos="5.10" departSpeed="0.00" departDelay="5.00" arrival="127.00" arrivalLane="4o_1" arrivalPos="488.65" arrivalSpeed="11.99" duration="120.00" routeLength="994.90" waitingTime="41.00" waitingCount="1" stopTime="0.00" timeLoss="54.65" rerouteNo="0" devices="tripinfo_f34.1 routing_f34.1" vType="DEFAULT_VEHTYPE" speedFactor="1.09" vaporized=""/>
    <tripinfo id="f43.1" depart="13.00" departLane="4i_0" departPos="5.10" departSpeed="0.00" departDelay="7.00" arrival="127.00" arrivalLane="3o_0" arrivalPos="488.65" arrivalSpeed="11.45" duration="114.00" routeLength="994.90" waitingTime="36.00" waitingCount="1" stopTime="0.00" timeLoss="51.15" rerouteNo="0" devices="tripinfo_f43.1 routing_f43.1" vType="DEFAULT_VEHTYPE" speedFactor="1.13" vaporized=""/>
    <tripinfo id="f43.0" depart="3.00" departLane="4i_0" departPos="5.10" departSpeed="0.00" departDelay="1.00" arrival="129.00" arrivalLane="3o_0" arrivalPos="488.65" arrivalSpeed="10.27" duration="126.00" routeLength="994.90" waitingTime="42.00" waitingCount="1" stopTime="0.00" timeLoss="56.80" rerouteNo="0" devices="tripinfo_f43.0 routing_f43.0" vType="DEFAULT_VEHTYPE" speedFactor="1.03" vaporized=""/>
    <tripinfo id="f43.2" depart="16.00" departLane="4i_0" departPos="5.10" departSpeed="0.00" departDelay="9.00" arrival="129.00" arrivalLane="3o_2" arrivalPos="488.65" arrivalSpeed="12.03" duration="113.00" routeLength="994.90" waitingTime="35.00" waitingCount="1" stopTime="0.00" timeLoss="51.04" rerouteNo="0" devices="tripinfo_f43.2 routing_f43.2" vType="DEFAULT_VEHTYPE" speedFactor="1.15" vaporized=""/>
    <tripinfo id="f43.4" depart="25.00" departLane="4i_0" departPos="5.10" departSpeed="0.00" departDelay="16.00" arrival="130.00" arrivalLane="3o_1" arrivalPos="488.65" arrivalSpeed="12.28" duration="105.00" routeLength="994.90" waitingTime="21.00" waitingCount="2" stopTime="0.00" timeLoss="44.39" rerouteNo="0" devices="tripinfo_f43.4 routing_f43.4" vType="DEFAULT_VEHTYPE" speedFactor="1.18" vaporized=""/>
    <tripinfo id="f41.2" depart="19.00" departLane="4i_0" departPos="5.10" departSpeed="0.00" departDelay="12.00" arrival="134.00" arrivalLane="1o_1" arrivalPos="488.65" arrivalSpeed="9.92" duration="115.00" routeLength="980.11" waitingTime="30.00" waitingCount="1" stopTime="0.00" timeLoss="45.19" rerouteNo="0" devices="tripinfo_f41.2 routing_f41.2" vType="DEFAULT_VEHTYPE" speedFactor="1.01" vaporized=""/>
    <tripinfo id="f32.0" depart="4.00" departLane="3i_0" departPos="5.10" departSpeed="0.00" departDelay="3.00" arrival="135.00" arrivalLane="2o_0" arrivalPos="488.65" arrivalSpeed="9.91" duration="131.00" routeLength="980.11" waitingTime="41.00" waitingCount="1" stopTime="0.00" timeLoss="56.13" rerouteNo="0" devices="tripinfo_f32.0 routing_f32.0" vType="DEFAULT_VEHTYPE" speedFactor="0.94" vaporized=""/>
    <tripinfo id="f41.1" depart="10.00" departLane="4i_0" departPos="5.10" departSpeed="0.00" departDelay="6.00" arrival="135.00" arrivalLane="1o_0" arrivalPos="488.65" arrivalSpeed="9.41" duration="125.00" routeLength="980.11" waitingTime="37.00" waitingCount="1" stopTime="0.00" timeLoss="50.19" rerouteNo="0" devices="tripinfo_f41.1 routing_f41.1" vType="DEFAULT_VEHTYPE" speedFactor="0.94" vaporized=""/>
    <tripinfo id="f34.2" depart="10.00" departLane="3i_0" departPos="5.10" departSpeed="0.00" departDelay="7.00" arrival="136.00" arrivalLane="4o_1" arrivalPos="488.65" arrivalSpeed="10.05" duration="126.00" routeLength="994.90" waitingTime="35.00" waitingCount="1" stopTime="0.00" timeLoss="49.62" rerouteNo="0" devices="tripinfo_f34.2 routing_f34.2" vType="DEFAULT_VEHTYPE" speedFactor="0.93" vaporized=""/>
    <tripinfo id="f43.5" depart="31.00" departLane="4i_0" departPos="5.10" departSpeed="0.00" departDelay="19.00" arrival="136.00" arrivalLane="3o_0" arrivalPos="488.65" arrivalSpeed="11.85" duration="105.00" routeLength="994.90" waitingTime="21.00" waitingCount="1" stopTime="0.00" timeLoss="39.23" rerouteNo="0" devices="tripinfo_f43.5 routing_f43.5" vType="DEFAULT_VEHTYPE" speedFactor="1.09" vaporized=""/>
    <tripinfo id="f34.0" depart="1.00" departLane="3i_0" departPos="5.10" departSpeed="0.00" departDelay="0.00" arrival="137.00" arrivalLane="4o_0" arrivalPos="488.65" arrivalSpeed="8.84" duration="136.00" routeLength="994.90" waitingTime="42.00" waitingCount="1" stopTime="0.00" timeLoss="55.99" rerouteNo="0" devices="tripinfo_f34.0 routing_f34.0" vType="DEFAULT_VEHTYPE" speedFactor="0.89" vaporized=""/>
    <tripinfo id="f43.3" depart="22.00" departLane="4i_0" departPos="5.10" departSpeed="0.00" departDelay="14.00" arrival="137.00" arrivalLane="3o_0" arrivalPos="488.65" arrivalSpeed="10.26" duration="115.00" routeLength="994.90" waitingTime="29.00" waitingCount="1" stopTime="0.00" timeLoss="44.04" rerouteNo="0" devices="tripinfo_f43.3 routing_f43.3" vType="DEFAULT_VEHTYPE" speedFactor="0.99" vaporized=""/>
    <tripinfo id="f34.4" depart="32.00" departLane="3i_0" departPos="5.10" departSpeed="0.00" departDelay="22.00" arrival="138.00" arrivalLane="4o_2" arrivalPos="488.65" arrivalSpeed="11.24" duration="106.00" routeLength="994.90" waitingTime="19.00" waitingCount="1" stopTime="0.00" timeLoss="36.81" rerouteNo="0" devices="tripinfo_f34.4 routing_f34.4" vType="DEFAULT_VEHTYPE" speedFactor="1.03" vaporized=""/>
    <tripinfo id="f34.3" depart="23.00" departLane="3i_0" departPos="5.10" departSpeed="0.00" departDelay="16.00" arrival="139.00" arrivalLane="4o_0" arrivalPos="488.65" arrivalSpeed="9.30" duration="116.00" routeLength="994.90" waitingTime="24.00" waitingCount="1" stopTime="0.00" timeLoss="39.87" rerouteNo="0" devices="tripinfo_f34.3 routing_f34.3" vType="DEFAULT_VEHTYPE" speedFactor="0.93" vaporized=""/>
    <tripinfo id="f34.5" depart="35.00" departLane="3i_0" departPos="5.10" departSpeed="0.00" departDelay="21.00" arrival="139.00" arrivalLane="4o_1" arrivalPos="488.65" arrivalSpeed="11.30" duration="104.00" routeLength="994.90" waitingTime="17.00" waitingCount="1" stopTime="0.00" timeLoss="39.36" rerouteNo="0" devices="tripinfo_f34.5 routing_f34.5" vType="DEFAULT_VEHTYPE" speedFactor="1.10" vaporized=""/>
    <tripinfo id="f43.7" depart="37.00" departLane="4i_0" departPos="5.10" departSpeed="0.00" departDelay="23.00" arrival="140.00" arrivalLane="3o_0" arrivalPos="488.65" arrivalSpeed="9.99" duration="103.00" routeLength="994.90" waitingTime="15.00" waitingCount="1" stopTime="0.00" timeLoss="32.68" rerouteNo="0" devices="tripinfo_f43.7 routing_f43.7" vType="DEFAULT_VEHTYPE" speedFactor="1.00" vaporized=""/>
    <tripinfo id="f32.1" depart="13.00" departLane="3i_0" departPos="5.10" departSpeed="0.00" departDelay="10.00" arrival="141.00" arrivalLane="2o_0" arrivalPos="488.65" arrivalSpeed="8.48" duration="128.00" routeLength="980.11" waitingTime="33.00" waitingCount="1" stopTime="0.00" timeLoss="48.33" rerouteNo="0" devices="tripinfo_f32.1 routing_f32.1" vType="DEFAULT_VEHTYPE" speedFactor="0.88" vaporized=""/>
    <tripinfo id="f32.2" depart="20.00" departLane="3i_0" departPos="5.10" departSpeed="0.00" departDelay="15.00" arrival="142.00" arrivalLane="2o_1" arrivalPos="488.65" arrivalSpeed="9.36" duration="122.00" routeLength="980.11" waitingTime="28.00" waitingCount="1" stopTime="0.00" timeLoss="43.73" rerouteNo="0" devices="tripinfo_f32.2 routing_f32.2" vType="DEFAULT_VEHTYPE" speedFactor="0.89" vaporized=""/>
    <tripinfo id="f34.10" depart="65.00" departLane="3i_0" departPos="5.10" departSpeed="0.00" departDelay="39.00" arrival="142.00" arrivalLane="4o_2" arrivalPos="488.65" arrivalSpeed="11.63" duration="77.00" routeLength="994.90" waitingTime="0.00" waitingCount="0" stopTime="0.00" timeLoss="13.44" rerouteNo="0" devices="tripinfo_f34.10 routing_f34.10" vType="DEFAULT_VEHTYPE" speedFactor="1.12" vaporized=""/>
    <tripinfo id="f32.3" depart="26.00" departLane="3i_0" departPos="5.10" departSpeed="0.00" departDelay="19.00" arrival="143.00" arrivalLane="2o_0" arrivalPos="488.65" arrivalSpeed="11.31" duration="117.00" routeLength="980.11" waitingTime="26.00" waitingCount="1" stopTime="0.00" timeLoss="57.31" rerouteNo="0" devices="tripinfo_f32.3 routing_f32.3" vType="DEFAULT_VEHTYPE" speedFactor="1.18" vaporized=""/>
    <tripinfo id="f34.6" depart="38.00" departLane="3i_0" departPos="5.10" departSpeed="0.00" departDelay="23.00" arrival="143.00" arrivalLane="4o_1" arrivalPos="488.65" arrivalSpeed="10.67" duration="105.00" routeLength="994.90" waitingTime="14.00" waitingCount="1" stopTime="0.00" timeLoss="31.52" rerouteNo="0" devices="tripinfo_f34.6 routing_f34.6" vType="DEFAULT_VEHTYPE" speedFactor="0.97" vaporized=""/>
    <tripinfo id="f34.8" depart="50.00" departLane="3i_0" departPos="5.10" departSpeed="0.00" departDelay="29.00" arrival="143.00" arrivalLane="4o_0" arrivalPos="488.65" arrivalSpeed="10.66" duration="93.00" routeLength="994.90" waitingTime="2.00" waitingCount="1" stopTime="0.00" timeLoss="19.13" rerouteNo="0" devices="tripinfo_f34.8 routing_f34.8" vType="DEFAULT_VEHTYPE" speedFactor="0.97" vaporized=""/>
    <tripinfo id="f41.3" depart="58.00" departLane="4i_0" departPos="5.10" departSpeed="0.00" departDelay="38.00" arrival="144.00" arrivalLane="1o_0" arrivalPos="488.65" arrivalSpeed="10.30" duration="86.00" routeLength="980.11" waitingTime="0.00" waitingCount="0" stopTime="0.00" timeLoss="15.69" rerouteNo="0" devices="tripinfo_f41.3 routing_f41.3" vType="DEFAULT_VEHTYPE" speedFactor="1.00" vaporized=""/>
    <tripinfo id="f41.4" depart="64.00" departLane="4i_0" departPos="5.10" departSpeed="0.00" departDelay="42.00" arrival="144.00" arrivalLane="1o_1" arrivalPos="488.65" arrivalSpeed="10.07" duration="80.00" routeLength="980.11" waitingTime="0.00" waitingCount="0" stopTime="0.00" timeLoss="11.00" rerouteNo="0" devices="tripinfo_f41.4 routing_f41.4" vType="DEFAULT_VEHTYPE" speedFactor="1.01" vaporized=""/>
    <tripinfo id="f34.9" depart="56.00" departLane="3i_0" departPos="5.10" departSpeed="0.00" departDelay="33.00" arrival="145.00" arrivalLane="4o_1" arrivalPos="488.65" arrivalSpeed="11.14" duration="89.00" routeLength="994.90" waitingTime="0.00" waitingCount="0" stopTime="0.00" timeLoss="19.31" rerouteNo="0" devices="tripinfo_f34.9 routing_f34.9" vType="DEFAULT_VEHTYPE" speedFactor="1.02" vaporized=""/>
    <tripinfo id="f43.9" depart="46.00" departLane="4i_0" departPos="5.10" departSpeed="0.00" departDelay="30.00" arrival="146.00" arrivalLane="3o_0" arrivalPos="488.65" arrivalSpeed="10.11" duration="100.00" routeLength="994.90" waitingTime="7.00" waitingCount="1" stopTime="0.00" timeLoss="24.17" rerouteNo="0" devices="tripinfo_f43.9 routing_f43.9" vType="DEFAULT_VEHTYPE" speedFactor="0.94" vaporized=""/>
    <tripinfo id="f34.7" depart="47.00" departLane="3i_0" departPos="5.10" departSpeed="0.00" departDelay="28.00" arrival="146.00" arrivalLane="4o_0" arrivalPos="488.65" arrivalSpeed="9.48" duration="99.00" routeLength="994.90" waitingTime="7.00" waitingCount="1" stopTime="0.00" timeLoss="24.43" rerouteNo="0" devices="tripinfo_f34.7 routing_f34.7" vType="DEFAULT_VEHTYPE" speedFactor="0.96" vaporized=""/>
    <tripinfo id="f43.10" depart="52.00" departLane="4i_0" departPos="5.10" departSpeed="0.00" departDelay="33.00" arrival="146.00" arrivalLane="3o_2" arrivalPos="488.65" arrivalSpeed="10.39" duration="94.00" routeLength="994.90" waitingTime="1.00" waitingCount="1" stopTime="0.00" timeLoss="21.72" rerouteNo="0" devices="tripinfo_f43.10 routing_f43.10" vType="DEFAULT_VEHTYPE" speedFactor="0.98" vaporized=""/>
    <tripinfo id="f43.11" depart="55.00" departLane="4i_0" departPos="5.10" departSpeed="0.00" departDelay="35.00" arrival="147.00" arrivalLane="3o_1" arrivalPos="488.65" arrivalSpeed="10.59" duration="92.00" routeLength="994.90" waitingTime="0.00" waitingCount="0" stopTime="0.00" timeLoss="23.68" rerouteNo="0" devices="tripinfo_f43.11 routing_f43.11" vType="DEFAULT_VEHTYPE" speedFactor="1.03" vaporized=""/>
    <tripinfo id="f32.4" depart="59.00" departLane="3i_0" departPos="5.10" departSpeed="0.00" departDelay="36.00" arrival="147.00" arrivalLane="2o_0" arrivalPos="488.65" arrivalSpeed="9.36" duration="88.00" routeLength="980.11" waitingTime="0.00" waitingCount="0" stopTime="0.00" timeLoss="10.02" rerouteNo="0" devices="tripinfo_f32.4 routing_f32.4" vType="DEFAULT_VEHTYPE" speedFactor="0.89" vaporized=""/>
    <tripinfo id="f32.5" depart="62.00" departLane="3i_0" departPos="5.10" departSpeed="0.00" departDelay="37.00" arrival="147.00" arrivalLane="2o_1" arrivalPos="488.65" arrivalSpeed="9.87" duration="85.00" routeLength="980.11" waitingTime="0.00" waitingCount="0" stopTime="0.00" timeLoss="9.44" rerouteNo="0" devices="tripinfo_f32.5 routing_f32.5" vType="DEFAULT_VEHTYPE" speedFactor="0.92" vaporized=""/>
    <tripinfo id="f34.11" depart="71.00" departLane="3i_0" departPos="5.10" departSpeed="0.00" departDelay="43.00" arrival="147.00" arrivalLane="4o_1" arrivalPos="488.65" arrivalSpeed="11.56" duration="76.00" routeLength="994.90" waitingTime="0.00" waitingCount="0" stopTime="0.00" timeLoss="9.73" rerouteNo="0" devices="tripinfo_f34.11 routing_f34.11" vType="DEFAULT_VEHTYPE" speedFactor="1.07" vaporized=""/>
    <tripinfo id="f43.6" depart="34.00" departLane="4i_0" departPos="5.10" departSpeed="0.00" departDelay="21.00" arrival="148.00" arrivalLane="3o_0" arrivalPos="488.65" arrivalSpeed="8.25" duration="114.00" routeLength="994.90" waitingTime="13.00" waitingCount="1" stopTime="0.00" timeLoss="30.35" rerouteNo="0" devices="tripinfo_f43.6 routing_f43.6" vType="DEFAULT_VEHTYPE" speedFactor="0.85" vaporized=""/>
    <tripinfo id="f43.8" depart="43.00" departLane="4i_0" departPos="5.10" departSpeed="0.00" departDelay="28.00" arrival="149.00" arrivalLane="3o_1" arrivalPos="488.65" arrivalSpeed="11.83" duration="106.00" routeLength="994.90" waitingTime="8.00" waitingCount="2" stopTime="0.00" timeLoss="42.42" rerouteNo="0" devices="tripinfo_f43.8 routing_f43.8" vType="DEFAULT_VEHTYPE" speedFactor="1.12" vaporized=""/>
    <tripinfo id="f42.0" depart="7.00" departLane="4i_0" departPos="5.10" departSpeed="0.00" departDelay="5.00" arrival="150.00" arrivalLane="2o_0" arrivalPos="488.65" arrivalSpeed="10.97" duration="143.00" routeLength="996.17" waitingTime="58.00" waitingCount="2" stopTime="0.00" timeLoss="75.34" rerouteNo="0" devices="tripinfo_f42.0 routing_f42.0" vType="DEFAULT_VEHTYPE" speedFactor="1.05" vaporized=""/>
    <tripinfo id="f41.5" depart="70.00" departLane="4i_0" departPos="5.10" departSpeed="0.00" departDelay="43.00" arrival="151.00" arrivalLane="1o_0" arrivalPos="488.65" arrivalSpeed="9.72" duration="81.00" routeLength="980.11" waitingTime="0.00" waitingCount="0" stopTime="0.00" timeLoss="7.47" rerouteNo="0" devices="tripinfo_f41.5 routing_f41.5" vType="DEFAULT_VEHTYPE" speedFactor="0.96" vaporized=""/>
    <tripinfo id="f42.1" depart="28.00" departLane="4i_0" departPos="5.10" departSpeed="0.00" departDelay="17.00" arrival="152.00" arrivalLane="2o_0" arrivalPos="488.65" arrivalSpeed="10.97" duration="124.00" routeLength="996.17" waitingTime="37.00" waitingCount="2" stopTime="0.00" timeLoss="55.92" rerouteNo="0" devices="tripinfo_f42.1 routing_f42.1" vType="DEFAULT_VEHTYPE" speedFactor="1.04" vaporized=""/>
    <tripinfo id="f31.0" depart="17.00" departLane="3i_0" departPos="5.10" departSpeed="0.00" departDelay="12.00" arrival="154.00" arrivalLane="1o_0" arrivalPos="488.65" arrivalSpeed="9.93" duration="137.00" routeLength="996.17" waitingTime="46.00" waitingCount="2" stopTime="0.00" timeLoss="63.81" rerouteNo="0" devices="tripinfo_f31.0 routing_f31.0" vType="DEFAULT_VEHTYPE" speedFactor="0.98" vaporized=""/>
    <tripinfo id="f31.2" depart="41.00" departLane="3i_0" departPos="5.10" departSpeed="0.00" departDelay="26.00" arrival="155.00" arrivalLane="1o_1" arrivalPos="488.65" arrivalSpeed="11.85" duration="114.00" routeLength="996.17" waitingTime="25.00" waitingCount="2" stopTime="0.00" timeLoss="48.57" rerouteNo="0" devices="tripinfo_f31.2 routing_f31.2" vType="DEFAULT_VEHTYPE" speedFactor="1.08" vaporized=""/>
    <tripinfo id="f42.4" depart="61.00" departLane="4i_0" departPos="5.10" departSpeed="0.00" departDelay="40.00" arrival="155.00" arrivalLane="2o_1" arrivalPos="488.65" arrivalSpeed="12.52" duration="94.00" routeLength="996.17" waitingTime="14.00" waitingCount="1" stopTime="0.00" timeLoss="31.79" rerouteNo="0" devices="tripinfo_f42.4 routing_f42.4" vType="DEFAULT_VEHTYPE" speedFactor="1.15" vaporized=""/>
    <tripinfo id="f43.12" depart="76.00" departLane="4i_0" departPos="5.10" departSpeed="0.00" departDelay="48.00" arrival="155.00" arrivalLane="3o_0" arrivalPos="488.65" arrivalSpeed="10.04" duration="79.00" routeLength="994.90" waitingTime="0.00" waitingCount="0" stopTime="0.00" timeLoss="8.57" rerouteNo="0" devices="tripinfo_f43.12 routing_f43.12" vType="DEFAULT_VEHTYPE" speedFactor="1.01" vaporized=""/>
    <tripinfo id="f42.2" depart="40.00" departLane="4i_0" departPos="5.10" departSpeed="0.00" departDelay="26.00" arrival="156.00" arrivalLane="2o_0" arrivalPos="488.65" arrivalSpeed="10.75" duration="116.00" routeLength="996.17" waitingTime="22.00" waitingCount="2" stopTime="0.00" timeLoss="44.75" rerouteNo="0" devices="tripinfo_f42.2 routing_f42.2" vType="DEFAULT_VEHTYPE" speedFactor="1.00" vaporized=""/>
    <tripinfo id="f31.1" depart="29.00" departLane="3i_0" departPos="5.10" departSpeed="0.00" departDelay="20.00" arrival="158.00" arrivalLane="1o_0" arrivalPos="488.65" arrivalSpeed="10.13" duration="129.00" routeLength="996.17" waitingTime="36.00" waitingCount="2" stopTime="0.00" timeLoss="55.81" rerouteNo="0" devices="tripinfo_f31.1 routing_f31.1" vType="DEFAULT_VEHTYPE" speedFactor="0.97" vaporized=""/>
    <tripinfo id="f31.3" depart="44.00" departLane="3i_0" departPos="5.10" departSpeed="0.00" departDelay="27.00" arrival="159.00" arrivalLane="1o_1" arrivalPos="488.65" arrivalSpeed="10.69" duration="115.00" routeLength="996.17" waitingTime="21.00" waitingCount="2" stopTime="0.00" timeLoss="47.02" rerouteNo="0" devices="tripinfo_f31.3 routing_f31.3" vType="DEFAULT_VEHTYPE" speedFactor="1.04" vaporized=""/>
    <tripinfo id="f42.5" depart="67.00" departLane="4i_0" departPos="5.10" departSpeed="0.00" departDelay="42.00" arrival="159.00" arrivalLane="2o_1" arrivalPos="488.65" arrivalSpeed="11.32" duration="92.00" routeLength="996.17" waitingTime="9.00" waitingCount="1" stopTime="0.00" timeLoss="26.37" rerouteNo="0" devices="tripinfo_f42.5 routing_f42.5" vType="DEFAULT_VEHTYPE" speedFactor="1.09" vaporized=""/>