<?xml version="1.0" encoding="UTF-8"?>

<!-- generated on Mon Dec  9 05:09:16 2019 by Eclipse SUMO Version 1.3.1
<configuration xmlns:xsi="http://www.w3.org/2001/XMLSchema-instance" xsi:noNamespaceSchemaLocation="http://sumo.dlr.de/xsd/sumoConfiguration.xsd">

    <input>
        <net-file value="data/cross.net.xml"/>
        <route-files value="data/cross.rou.xml"/>
        <additional-files value="data/cross.add.xml"/>
    </input>

    <output>
        <tripinfo-output value="tripinfo.xml"/>
    </output>

    <time>
        <begin value="0"/>
    </time>

    <report>
        <verbose value="true"/>
        <no-step-log value="true"/>
    </report>

    <traci_server>
        <remote-port value="33101"/>
    </traci_server>

    <random_number>
        <random value="true"/>
    </random_number>

</configuration>
-->

<tripinfos xmlns:xsi="http://www.w3.org/2001/XMLSchema-instance" xsi:noNamespaceSchemaLocation="http://sumo.dlr.de/xsd/tripinfo_file.xsd">
    <tripinfo id="f34.0" depart="1.00" departLane="Si_0" departPos="5.10" departSpeed="0.00" departDelay="0.00" arrival="152.00" arrivalLane="No_0" arrivalPos="982.40" arrivalSpeed="11.26" duration="151.00" routeLength="1993.61" waitingTime="0.00" waitingCount="0" stopTime="0.00" timeLoss="11.64" rerouteNo="0" devices="tripinfo_f34.0 routing_f34.0" vType="DEFAULT_VEHTYPE" speedFactor="1.02" vaporized=""/>
    <tripinfo id="f41.1" depart="10.00" departLane="Ni_0" departPos="5.10" departSpeed="0.00" departDelay="0.00" arrival="153.00" arrivalLane="Wo_0" arrivalPos="976.00" arrivalSpeed="12.23" duration="143.00" routeLength="1965.03" waitingTime="0.00" waitingCount="0" stopTime="0.00" timeLoss="17.82" rerouteNo="0" devices="tripinfo_f41.1 routing_f41.1" vType="DEFAULT_VEHTYPE" speedFactor="1.12" vaporized=""/>
    <tripinfo id="f32.1" depart="10.00" departLane="Si_0" departPos="5.10" departSpeed="0.00" departDelay="0.00" arrival="156.00" arrivalLane="Eo_0" arrivalPos="987.55" arrivalSpeed="11.05" duration="146.00" routeLength="1983.06" waitingTime="0.00" waitingCount="0" stopTime="0.00" timeLoss="11.34" rerouteNo="0" devices="tripinfo_f32.1 routing_f32.1" vType="DEFAULT_VEHTYPE" speedFactor="1.05" vaporized=""/>
    <tripinfo id="f41.0" depart="2.00" departLane="Ni_0" departPos="5.10" departSpeed="0.00" departDelay="0.00" arrival="171.00" arrivalLane="Wo_0" arrivalPos="976.00" arrivalSpeed="8.94" duration="169.00" routeLength="1965.03" waitingTime="0.00" waitingCount="0" stopTime="0.00" timeLoss="13.79" rerouteNo="0" devices="tripinfo_f41.0 routing_f41.0" vType="DEFAULT_VEHTYPE" speedFactor="0.90" vaporized=""/>
    <tripinfo id="f43.0" depart="26.00" departLane="Ni_0" departPos="5.10" departSpeed="0.00" departDelay="0.00" arrival="172.00" arrivalLane="So_0" arrivalPos="988.88" arrivalSpeed="10.99" duration="146.00" routeLength="1993.61" waitingTime="0.00" waitingCount="0" stopTime="0.00" timeLoss="11.18" rerouteNo="0" devices="tripinfo_f43.0 routing_f43.0" vType="DEFAULT_VEHTYPE" speedFactor="1.05" vaporized=""/>
    <tripinfo id="f34.2" depart="31.00" departLane="Si_0" departPos="5.10" departSpeed="0.00" departDelay="1.00" arrival="173.00" arrivalLane="No_0" arrivalPos="982.40" arrivalSpeed="10.88" duration="142.00" routeLength="1993.61" waitingTime="0.00" waitingCount="0" stopTime="0.00" timeLoss="11.11" rerouteNo="0" devices="tripinfo_f34.2 routing_f34.2" vType="DEFAULT_VEHTYPE" speedFactor="1.08" vaporized=""/>
    <tripinfo id="f34.1" depart="25.00" departLane="Si_0" departPos="5.10" departSpeed="0.00" departDelay="0.00" arrival="182.00" arrivalLane="No_0" arrivalPos="982.40" arrivalSpeed="10.81" duration="157.00" routeLength="1993.61" waitingTime="0.00" waitingCount="0" stopTime="0.00" timeLoss="11.94" rerouteNo="0" devices="tripinfo_f34.1 routing_f34.1" vType="DEFAULT_VEHTYPE" speedFactor="0.97" vaporized=""/>
    <tripinfo id="f32.0" depart="6.00" departLane="Si_0" departPos="5.10" departSpeed="0.00" departDelay="0.00" arrival="188.00" arrivalLane="Eo_0" arrivalPos="987.55" arrivalSpeed="8.71" duration="182.00" routeLength="1983.06" waitingTime="0.00" waitingCount="0" stopTime="0.00" timeLoss="15.76" rerouteNo="0" devices="tripinfo_f32.0 routing_f32.0" vType="DEFAULT_VEHTYPE" speedFactor="0.85" vaporized=""/>
    <tripinfo id="f41.2" depart="21.00" departLane="Ni_0" departPos="5.10" departSpeed="0.00" departDelay="0.00" arrival="188.00" arrivalLane="Wo_0" arrivalPos="976.00" arrivalSpeed="10.01" duration="167.00" routeLength="1965.03" waitingTime="0.00" waitingCount="0" stopTime="0.00" timeLoss="14.05" rerouteNo="0" devices="tripinfo_f41.2 routing_f41.2" vType="DEFAULT_VEHTYPE" speedFactor="0.91" vaporized=""/>
    <tripinfo id="f41.4" depart="58.00" departLane="Ni_0" departPos="5.10" departSpeed="0.00" departDelay="0.00" arrival="189.00" arrivalLane="Wo_1" arrivalPos="976.00" arrivalSpeed="12.98" duration="131.00" routeLength="1965.03" waitingTime="0.00" waitingCount="0" stopTime="0.00" timeLoss="12.38" rerouteNo="0" devices="tripinfo_f41.4 routing_f41.4" vType="DEFAULT_VEHTYPE" speedFactor="1.18" vaporized=""/>
    <tripinfo id="f34.3" depart="39.00" departLane="Si_0" departPos="5.10" departSpeed="0.00" departDelay="0.00" arrival="190.00" arrivalLane="No_0" arrivalPos="982.40" arrivalSpeed="11.00" duration="151.00" routeLength="1993.61" waitingTime="0.00" waitingCount="0" stopTime="0.00" timeLoss="11.48" rerouteNo="0" devices="tripinfo_f34.3 routing_f34.3" vType="DEFAULT_VEHTYPE" speedFactor="1.01" vaporized=""/>
    <tripinfo id="f41.3" depart="46.00" departLane="Ni_0" departPos="5.10" departSpeed="0.00" departDelay="0.00" arrival="192.00" arrivalLane="Wo_0" arrivalPos="976.00" arrivalSpeed="11.31" duration="146.00" routeLength="1965.03" waitingTime="0.00" waitingCount="0" stopTime="0.00" timeLoss="11.92" rerouteNo="0" devices="tripinfo_f41.3 routing_f41.3" vType="DEFAULT_VEHTYPE" speedFactor="1.05" vaporized=""/>
    <tripinfo id="f34.7" depart="70.00" departLane="Si_0" departPos="5.10" departSpeed="0.00" departDelay="11.00" arrival="202.00" arrivalLane="No_0" arrivalPos="982.40" arrivalSpeed="12.62" duration="132.00" routeLength="1993.61" waitingTime="0.00" waitingCount="0" stopTime="0.00" timeLoss="15.77" rerouteNo="0" devices="tripinfo_f34.7 routing_f34.7" vType="DEFAULT_VEHTYPE" speedFactor="1.22" vaporized=""/>
    <tripinfo id="f43.1" depart="33.00" departLane="Ni_0" departPos="5.10" departSpeed="0.00" departDelay="0.00" arrival="204.00" arrivalLane="So_0" arrivalPos="988.88" arrivalSpeed="9.92" duration="171.00" routeLength="1993.61" waitingTime="0.00" waitingCount="0" stopTime="0.00" timeLoss="12.69" rerouteNo="0" devices="tripinfo_f43.1 routing_f43.1" vType="DEFAULT_VEHTYPE" speedFactor="0.89" vaporized=""/>
    <tripinfo id="f34.5" depart="64.00" departLane="Si_0" departPos="5.10" departSpeed="0.00" departDelay="8.00" arrival="205.00" arrivalLane="No_0" arrivalPos="982.40" arrivalSpeed="12.01" duration="141.00" routeLength="1993.61" waitingTime="0.00" waitingCount="0" stopTime="0.00" timeLoss="13.33" rerouteNo="0" devices="tripinfo_f34.5 routing_f34.5" vType="DEFAULT_VEHTYPE" speedFactor="1.11" vaporized=""/>
    <tripinfo id="f34.4" depart="52.00" departLane="Si_0" departPos="5.10" departSpeed="0.00" departDelay="5.00" arrival="216.00" arrivalLane="No_0" arrivalPos="982.40" arrivalSpeed="9.71" duration="164.00" routeLength="1993.61" waitingTime="0.00" waitingCount="0" stopTime="0.00" timeLoss="12.65" rerouteNo="0" devices="tripinfo_f34.4 routing_f34.4" vType="DEFAULT_VEHTYPE" speedFactor="0.94" vaporized=""/>
    <tripinfo id="f32.5" depart="76.00" departLane="Si_0" departPos="5.10" departSpeed="0.00" departDelay="5.00" arrival="216.00" arrivalLane="Eo_1" arrivalPos="987.55" arrivalSpeed="12.07" duration="140.00" routeLength="1983.06" waitingTime="0.00" waitingCount="0" stopTime="0.00" timeLoss="15.98" rerouteNo="0" devices="tripinfo_f32.5 routing_f32.5" vType="DEFAULT_VEHTYPE" speedFactor="1.14" vaporized=""/>
    <tripinfo id="f32.2" depart="55.00" departLane="Si_0" departPos="5.10" departSpeed="0.00" departDelay="7.00" arrival="217.00" arrivalLane="Eo_0" arrivalPos="987.55" arrivalSpeed="10.11" duration="162.00" routeLength="1983.06" waitingTime="0.00" waitingCount="0" stopTime="0.00" timeLoss="14.01" rerouteNo="0" devices="tripinfo_f32.2 routing_f32.2" vType="DEFAULT_VEHTYPE" speedFactor="0.96" vaporized=""/>
    <tripinfo id="f32.4" depart="73.00" departLane="Si_0" departPos="5.10" departSpeed="0.00" departDelay="14.00" arrival="218.00" arrivalLane="Eo_1" arrivalPos="987.55" arrivalSpeed="11.73" duration="145.00" routeLength="1983.06" waitingTime="0.00" waitingCount="0" stopTime="0.00" timeLoss="15.87" rerouteNo="0" devices="tripinfo_f32.4 routing_f32.4" vType="DEFAULT_VEHTYPE" speedFactor="1.09" vaporized=""/>
    <tripinfo id="f34.6" depart="67.00" departLane="Si_0" departPos="5.10" departSpeed="0.00" departDelay="10.00" arrival="223.00" arrivalLane="No_0" arrivalPos="982.40" arrivalSpeed="10.52" duration="156.00" routeLength="1993.61" waitingTime="0.00" waitingCount="0" stopTime="0.00" timeLoss="12.67" rerouteNo="0" devices="tripinfo_f34.6 routing_f34.6" vType="DEFAULT_VEHTYPE" speedFactor="0.99" vaporized=""/>
    <tripinfo id="f32.7" depart="99.00" departLane="Si_0" departPos="5.10" departSpeed="0.00" departDelay="0.00" arrival="229.00" arrivalLane="Eo_0" arrivalPos="987.55" arrivalSpeed="12.65" duration="130.00" routeLength="1983.06" waitingTime="0.00" waitingCount="0" stopTime="0.00" timeLoss="11.40" rerouteNo="0" devices="tripinfo_f32.7 routing_f32.7" vType="DEFAULT_VEHTYPE" speedFactor="1.19" vaporized=""/>
    <tripinfo id="f32.6" depart="85.00" departLane="Si_0" departPos="5.10" departSpeed="0.00" departDelay="4.00" arrival="237.00" arrivalLane="Eo_0" arrivalPos="987.55" arrivalSpeed="10.23" duration="152.00" routeLength="1983.06" waitingTime="0.00" waitingCount="0" stopTime="0.00" timeLoss="15.29" rerouteNo="0" devices="tripinfo_f32.6 routing_f32.6" vType="DEFAULT_VEHTYPE" speedFactor="1.03" vaporized=""/>
    <tripinfo id="f32.3" depart="61.00" departLane="Si_0" departPos="5.10" departSpeed="0.00" departDelay="9.00" arrival="240.00" arrivalLane="Eo_0" arrivalPos="987.55" arrivalSpeed="9.31" duration="179.00" routeLength="1983.06" waitingTime="0.00" waitingCount="0" stopTime="0.00" timeLoss="14.93" rerouteNo="0" devices="tripinfo_f32.3 routing_f32.3" vType="DEFAULT_VEHTYPE" speedFactor="0.86" vaporized=""/>
    <tripinfo id="f43.2" depart="83.00" departLane="Ni_0" departPos="5.10" departSpeed="0.00" departDelay="1.00" arrival="240.00" arrivalLane="So_0" arrivalPos="988.88" arrivalSpeed="10.80" duration="157.00" routeLength="1993.61" waitingTime="0.00" waitingCount="0" stopTime="0.00" timeLoss="12.76" rerouteNo="0" devices="tripinfo_f43.2 routing_f43.2" vType="DEFAULT_VEHTYPE" speedFactor="0.98" vaporized=""/>
    <tripinfo id="f41.5" depart="92.00" departLane="Ni_0" departPos="5.10" departSpeed="0.00" departDelay="0.00" arrival="242.00" arrivalLane="Wo_0" arrivalPos="976.00" arrivalSpeed="10.40" duration="150.00" routeLength="1965.03" waitingTime="0.00" waitingCount="0" stopTime="0.00" timeLoss="13.06" rerouteNo="0" devices="tripinfo_f41.5 routing_f41.5" vType="DEFAULT_VEHTYPE" speedFactor="1.03" vaporized=""/>
    <tripinfo id="f32.8" depart="103.00" departLane="Si_0" departPos="5.10" departSpeed="0.00" departDelay="0.00" arrival="251.00" arrivalLane="Eo_0" arrivalPos="987.55" arrivalSpeed="11.47" duration="148.00" routeLength="1983.06" waitingTime="0.00" waitingCount="0" stopTime="0.00" timeLoss="12.30" rerouteNo="0" devices="tripinfo_f32.8 routing_f32.8" vType="DEFAULT_VEHTYPE" speedFactor="1.04" vaporized=""/>
    <tripinfo id="f41.6" depart="97.00" departLane="Ni_0" departPos="5.10" departSpeed="0.00" departDelay="0.00" arrival="254.00" arrivalLane="Wo_0" arrivalPos="976.00" arrivalSpeed="10.06" duration="157.00" routeLength="1965.03" waitingTime="0.00" waitingCount="0" stopTime="0.00" timeLoss="12.84" rerouteNo="0" devices="tripinfo_f41.6 routing_f41.6" vType="DEFAULT_VEHTYPE" speedFactor="0.97" vaporized=""/>
    <tripinfo id="f41.8" depart="123.00" departLane="Ni_0" departPos="5.10" departSpeed="0.00" departDelay="0.00" arrival="267.00" arrivalLane="Wo_0" arrivalPos="976.00" arrivalSpeed="11.56" duration="144.00" routeLength="1965.03" waitingTime="0.00" waitingCount="0" stopTime="0.00" timeLoss="12.41" rerouteNo="0" devices="tripinfo_f41.8 routing_f41.8" vType="DEFAULT_VEHTYPE" speedFactor="1.06" vaporized=""/>
    <tripinfo id="f41.7" depart="100.00" departLane="Ni_0" departPos="5.10" departSpeed="0.00" departDelay="0.00" arrival="272.00" arrivalLane="Wo_0" arrivalPos="976.00" arrivalSpeed="9.63" duration="172.00" routeLength="1965.03" waitingTime="0.00" waitingCount="0" stopTime="0.00" timeLoss="14.91" rerouteNo="0" devices="tripinfo_f41.7 routing_f41.7" vType="DEFAULT_VEHTYPE" speedFactor="0.89" vaporized=""/>
    <tripinfo id="f41.9" depart="127.00" departLane="Ni_0" departPos="5.10" departSpeed="0.00" departDelay="0.00" arrival="283.00" arrivalLane="Wo_0" arrivalPos="976.00" arrivalSpeed="9.85" duration="156.00" routeLength="1965.03" waitingTime="0.00" waitingCount="0" stopTime="0.00" timeLoss="13.05" rerouteNo="0" devices="tripinfo_f41.9 routing_f41.9" vType="DEFAULT_VEHTYPE" speedFactor="0.98" vaporized=""/>
    <tripinfo id="f34.8" depart="134.00" departLane="Si_0" departPos="5.10" departSpeed="0.00" departDelay="0.00" arrival="286.00" arrivalLane="No_0" arrivalPos="982.40" arrivalSpeed="10.30" duration="152.00" routeLength="1993.61" waitingTime="0.00" waitingCount="0" stopTime="0.00" timeLoss="10.94" rerouteNo="0" devices="tripinfo_f34.8 routing_f34.8" vType="DEFAULT_VEHTYPE" speedFactor="1.01" vaporized=""/>
    <tripinfo id="f43.3" depart="137.00" departLane="Ni_0" departPos="5.10" departSpeed="0.00" departDelay="0.00" arrival="287.00" arrivalLane="So_0" arrivalPos="988.88" arrivalSpeed="11.33" duration="150.00" routeLength="1993.61" waitingTime="0.00" waitingCount="0" stopTime="0.00" timeLoss="11.30" rerouteNo="0" devices="tripinfo_f43.3 routing_f43.3" vType="DEFAULT_VEHTYPE" speedFactor="1.03" vaporized=""/>
    <tripinfo id="f32.10" depart="145.00" departLane="Si_0" departPos="5.10" departSpeed="0.00" departDelay="1.00" arrival="289.00" arrivalLane="Eo_0" arrivalPos="987.55" arrivalSpeed="11.64" duration="144.00" routeLength="1983.06" waitingTime="0.00" waitingCount="0" stopTime="0.00" timeLoss="12.42" rerouteNo="0" devices="tripinfo_f32.10 routing_f32.10" vType="DEFAULT_VEHTYPE" speedFactor="1.08" vaporized=""/>
    <tripinfo id="f41.10" depart="145.00" departLane="Ni_0" departPos="5.10" departSpeed="0.00" departDelay="0.00" arrival="300.00" arrivalLane="Wo_0" arrivalPos="976.00" arrivalSpeed="10.56" duration="155.00" routeLength="1965.03" waitingTime="0.00" waitingCount="0" stopTime="0.00" timeLoss="12.78" rerouteNo="0" devices="tripinfo_f41.10 routing_f41.10" vType="DEFAULT_VEHTYPE" speedFactor="0.98" vaporized=""/>
    <tripinfo id="f32.11" depart="159.00" departLane="Si_0" departPos="5.10" departSpeed="0.00" departDelay="0.00" arrival="308.00" arrivalLane="Eo_0" arrivalPos="987.55" arrivalSpeed="11.23" duration="149.00" routeLength="1983.06" waitingTime="0.00" waitingCount="0" stopTime="0.00" timeLoss="16.82" rerouteNo="0" devices="tripinfo_f32.11 routing_f32.11" vType="DEFAULT_VEHTYPE" speedFactor="1.07" vaporized=""/>
    <tripinfo id="f41.11" depart="157.00" departLane="Ni_0" departPos="5.10" departSpeed="0.00" departDelay="0.00" arrival="315.00" arrivalLane="Wo_0" arrivalPos="976.00" arrivalSpeed="10.07" duration="158.00" routeLength="1965.03" waitingTime="0.00" waitingCount="0" stopTime="0.00" timeLoss="11.58" rerouteNo="0" devices="tripinfo_f41.11 routing_f41.11" vType="DEFAULT_VEHTYPE" speedFactor="0.96" vaporized=""/>
    <tripinfo id="f34.9" depart="177.00" departLane="Si_0" departPos="5.10" departSpeed="0.00" departDelay="0.00" arrival="324.00" arrivalLane="No_0" arrivalPos="982.40" arrivalSpeed="11.50" duration="147.00" routeLength="1993.61" waitingTime="0.00" waitingCount="0" stopTime="0.00" timeLoss="12.79" rerouteNo="0" devices="tripinfo_f34.9 routing_f34.9" vType="DEFAULT_VEHTYPE" speedFactor="1.06" vaporized=""/>
    <tripinfo id="f32.13" depart="172.00" departLane="Si_0" departPos="5.10" departSpeed="0.00" departDelay="1.00" arrival="331.00" arrivalLane="Eo_0" arrivalPos="987.55" arrivalSpeed="9.94" duration="159.00" routeLength="1983.06" waitingTime="0.00" waitingCount="0" stopTime="0.00" timeLoss="14.12" rerouteNo="0" devices="tripinfo_f32.13 routing_f32.13" vType="DEFAULT_VEHTYPE" speedFactor="0.98" vaporized=""/>
    <tripinfo id="f32.12" depart="165.00" departLane="Si_0" departPos="5.10" departSpeed="0.00" departDelay="0.00" arrival="339.00" arrivalLane="Eo_0" arrivalPos="987.55" arrivalSpeed="9.63" duration="174.00" routeLength="1983.06" waitingTime="0.00" waitingCount="0" stopTime="0.00" timeLoss="14.82" rerouteNo="0" devices="tripinfo_f32.12 routing_f32.12" vType="DEFAULT_VEHTYPE" speedFactor="0.89" vaporized=""/>
    <tripinfo id="f34.10" depart="184.00" departLane="Si_0" departPos="5.10" departSpeed="0.00" departDelay="0.00" arrival="340.00" arrivalLane="No_0" arrivalPos="982.40" arrivalSpeed="10.63" duration="156.00" routeLength="1993.61" waitingTime="0.00" waitingCount="0" stopTime="0.00" timeLoss="12.00" rerouteNo="0" devices="tripinfo_f34.10 routing_f34.10" vType="DEFAULT_VEHTYPE" speedFactor="0.98" vaporized=""/>
    <tripinfo id="f32.9" depart="142.00" departLane="Si_0" departPos="5.10" departSpeed="0.00" departDelay="0.00" arrival="343.00" arrivalLane="Eo_0" arrivalPos="987.55" arrivalSpeed="7.66" duration="201.00" routeLength="1983.06" waitingTime="0.00" waitingCount="0" stopTime="0.00" timeLoss="17.44" rerouteNo="0" devices="tripinfo_f32.9 routing_f32.9" vType="DEFAULT_VEHTYPE" speedFactor="0.77" vaporized=""/>
    <tripinfo id="f43.6" depart="189.00" departLane="Ni_0" departPos="5.10" departSpeed="0.00" departDelay="0.00" arrival="344.00" arrivalLane="So_0" arrivalPos="988.88" arrivalSpeed="10.52" duration="155.00" routeLength="1993.61" waitingTime="0.00" waitingCount="0" stopTime="0.00" timeLoss="12.62" rerouteNo="0" devices="tripinfo_f43.6 routing_f43.6" vType="DEFAULT_VEHTYPE" speedFactor="1.00" vaporized=""/>
    <tripinfo id="f41.12" depart="180.00" departLane="Ni_0" departPos="5.10" departSpeed="0.00" departDelay="0.00" arrival="346.00" arrivalLane="Wo_0" arrivalPos="976.00" arrivalSpeed="10.14" duration="166.00" routeLength="1965.03" waitingTime="0.00" waitingCount="0" stopTime="0.00" timeLoss="12.92" rerouteNo="0" devices="tripinfo_f41.12 routing_f41.12" vType="DEFAULT_VEHTYPE" speedFactor="0.92" vaporized=""/>
    <tripinfo id="f43.4" depart="164.00" departLane="Ni_0" departPos="5.10" departSpeed="0.00" departDelay="0.00" arrival="349.00" arrivalLane="So_0" arrivalPos="988.88" arrivalSpeed="8.75" duration="185.00" routeLength="1993.61" waitingTime="0.00" waitingCount="0" stopTime="0.00" timeLoss="13.84" rerouteNo="0" devices="tripinfo_f43.4 routing_f43.4" vType="DEFAULT_VEHTYPE" speedFactor="0.83" vaporized=""/>
    <tripinfo id="f34.11" depart="202.00" departLane="Si_0" departPos="5.10" departSpeed="0.00" departDelay="0.00" arrival="357.00" arrivalLane="No_0" arrivalPos="982.40" arrivalSpeed="10.42" duration="155.00" routeLength="1993.61" waitingTime="0.00" waitingCount="0" stopTime="0.00" timeLoss="11.78" rerouteNo="0" devices="tripinfo_f34.11 routing_f34.11" vType="DEFAULT_VEHTYPE" speedFactor="0.99" vaporized=""/>
    <tripinfo id="f43.5" depart="186.00" departLane="Ni_0" departPos="5.10" departSpeed="0.00" departDelay="0.00" arrival="365.00" arrivalLane="So_0" arrivalPos="988.88" arrivalSpeed="9.11" duration="179.00" routeLength="1993.61" waitingTime="0.00" waitingCount="0" stopTime="0.00" timeLoss="13.71" rerouteNo="0" devices="tripinfo_f43.5 routing_f43.5" vType="DEFAULT_VEHTYPE" speedFactor="0.86" vaporized=""/>
    <tripinfo id="f34.12" depart="217.00" departLane="Si_0" departPos="5.10" departSpeed="0.00" departDelay="0.00" arrival="370.00" arrivalLane="No_0" arrivalPos="982.40" arrivalSpeed="10.64" duration="153.00" routeLength="1993.61" waitingTime="0.00" waitingCount="0" stopTime="0.00" timeLoss="11.50" rerouteNo="0" devices="tripinfo_f34.12 routing_f34.12" vType="DEFAULT_VEHTYPE" speedFactor="1.00" vaporized=""/>
    <tripinfo id="f41.13" depart="199.00" departLane="Ni_0" departPos="5.10" departSpeed="0.00" departDelay="1.00" arrival="371.00" arrivalLane="Wo_0" arrivalPos="976.00" arrivalSpeed="9.24" duration="172.00" routeLength="1965.03" waitingTime="0.00" waitingCount="0" stopTime="0.00" timeLoss="14.51" rerouteNo="0" devices="tripinfo_f41.13 routing_f41.13" vType="DEFAULT_VEHTYPE" speedFactor="0.89" vaporized=""/>
    <tripinfo id="f43.7" depart="225.00" departLane="Ni_0" departPos="5.10" departSpeed="0.00" departDelay="1.00" arrival="373.00" arrivalLane="So_0" arrivalPos="988.88" arrivalSpeed="11.45" duration="148.00" routeLength="1993.61" waitingTime="0.00" waitingCount="0" stopTime="0.00" timeLoss="11.74" rerouteNo="0" devices="tripinfo_f43.7 routing_f43.7" vType="DEFAULT_VEHTYPE" speedFactor="1.04" vaporized=""/>
    <tripinfo id="f41.16" depart="249.00" departLane="Ni_0" departPos="5.10" departSpeed="0.00" departDelay="0.00" arrival="387.00" arrivalLane="Wo_0" arrivalPos="976.00" arrivalSpeed="11.54" duration="138.00" routeLength="1965.03" waitingTime="0.00" waitingCount="0" stopTime="0.00" timeLoss="14.01" rerouteNo="0" devices="tripinfo_f41.16 routing_f41.16" vType="DEFAULT_VEHTYPE" speedFactor="1.13" vaporized=""/>
    <tripinfo id="f41.15" depart="240.00" departLane="Ni_0" departPos="5.10" departSpeed="0.00" departDelay="0.00" arrival="390.00" arrivalLane="Wo_0" arrivalPos="976.00" arrivalSpeed="11.30" duration="150.00" routeLength="1965.03" waitingTime="0.00" waitingCount="0" stopTime="0.00" timeLoss="14.89" rerouteNo="0" devices="tripinfo_f41.15 routing_f41.15" vType="DEFAULT_VEHTYPE" speedFactor="1.04" vaporized=""/>
    <tripinfo id="f32.14" depart="235.00" departLane="Si_0" departPos="5.10" departSpeed="0.00" departDelay="0.00" arrival="396.00" arrivalLane="Eo_0" arrivalPos="987.55" arrivalSpeed="9.82" duration="161.00" routeLength="1983.06" waitingTime="0.00" waitingCount="0" stopTime="0.00" timeLoss="17.27" rerouteNo="0" devices="tripinfo_f32.14 routing_f32.14" vType="DEFAULT_VEHTYPE" speedFactor="0.98" vaporized=""/>
    <tripinfo id="f34.14" depart="238.00" departLane="Si_0" departPos="5.10" departSpeed="0.00" departDelay="0.00" arrival="396.00" arrivalLane="No_0" arrivalPos="982.40" arrivalSpeed="10.65" duration="158.00" routeLength="1993.61" waitingTime="0.00" waitingCount="0" stopTime="0.00" timeLoss="15.81" rerouteNo="0" devices="tripinfo_f34.14 routing_f34.14" vType="DEFAULT_VEHTYPE" speedFactor="0.99" vaporized=""/>
    <tripinfo id="f34.16" depart="254.00" departLane="Si_0" departPos="5.10" departSpeed="0.00" departDelay="1.00" arrival="398.00" arrivalLane="No_0" arrivalPos="982.40" arrivalSpeed="10.93" duration="144.00" routeLength="1993.61" waitingTime="0.00" waitingCount="0" stopTime="0.00" timeLoss="13.39" rerouteNo="0" devices="tripinfo_f34.16 routing_f34.16" vType="DEFAULT_VEHTYPE" speedFactor="1.08" vaporized=""/>
    <tripinfo id="f34.17" depart="260.00" departLane="Si_0" departPos="5.10" departSpeed="0.00" departDelay="1.00" arrival="398.00" arrivalLane="No_1" arrivalPos="982.40" arrivalSpeed="12.99" duration="138.00" routeLength="1993.61" waitingTime="0.00" waitingCount="0" stopTime="0.00" timeLoss="17.47" rerouteNo="0" devices="tripinfo_f34.17 routing_f34.17" vType="DEFAULT_VEHTYPE" speedFactor="1.17" vaporized=""/>
    <tripinfo id="f32.15" depart="241.00" departLane="Si_0" departPos="5.10" departSpeed="0.00" departDelay="3.00" arrival="406.00" arrivalLane="Eo_0" arrivalPos="987.55" arrivalSpeed="9.98" duration="165.00" routeLength="1983.06" waitingTime="0.00" waitingCount="0" stopTime="0.00" timeLoss="19.14" rerouteNo="0" devices="tripinfo_f32.15 routing_f32.15" vType="DEFAULT_VEHTYPE" speedFactor="0.97" vaporized=""/>
    <tripinfo id="f41.14" depart="228.00" departLane="Ni_0" departPos="5.10" departSpeed="0.00" departDelay="0.00" arrival="407.00" arrivalLane="Wo_0" arrivalPos="976.00" arrivalSpeed="8.32" duration="179.00" routeLength="1965.03" waitingTime="0.00" waitingCount="0" stopTime="0.00" timeLoss="15.86" rerouteNo="0" devices="tripinfo_f41.14 routing_f41.14" vType="DEFAULT_VEHTYPE" speedFactor="0.86" vaporized=""/>
    <tripinfo id="f34.15" depart="251.00" departLane="Si_0" departPos="5.10" departSpeed="0.00" departDelay="0.00" arrival="411.00" arrivalLane="No_0" arrivalPos="982.40" arrivalSpeed="10.70" duration="160.00" routeLength="1993.61" waitingTime="0.00" waitingCount="0" stopTime="0.00" timeLoss="14.25" rerouteNo="0" devices="tripinfo_f34.15 routing_f34.15" vType="DEFAULT_VEHTYPE" speedFactor="0.97" vaporized=""/>
    <tripinfo id="f43.8" depart="263.00" departLane="Ni_0" departPos="5.10" departSpeed="0.00" departDelay="0.00" arrival="414.00" arrivalLane="So_0" arrivalPos="988.88" arrivalSpeed="10.94" duration="151.00" routeLength="1993.61" waitingTime="0.00" waitingCount="0" stopTime="0.00" timeLoss="11.65" rerouteNo="0" devices="tripinfo_f43.8 routing_f43.8" vType="DEFAULT_VEHTYPE" speedFactor="1.02" vaporized=""/>
    <tripinfo id="f32.16" depart="243.00" departLane="Si_0" departPos="5.10" departSpeed="0.00" departDelay="0.00" arrival="417.00" arrivalLane="Eo_0" arrivalPos="987.55" arrivalSpeed="8.94" duration="174.00" routeLength="1983.06" waitingTime="0.00" waitingCount="0" stopTime="0.00" timeLoss="16.41" rerouteNo="0" devices="tripinfo_f32.16 routing_f32.16" vType="DEFAULT_VEHTYPE" speedFactor="0.90" vaporized=""/>
    <tripinfo id="f32.17" depart="263.00" departLane="Si_0" departPos="5.10" departSpeed="0.00" departDelay="3.00" arrival="420.00" arrivalLane="Eo_0" arrivalPos="987.55" arrivalSpeed="10.85" duration="157.00" routeLength="1983.06" waitingTime="0.00" waitingCount="0" stopTime="0.00" timeLoss="12.68" rerouteNo="0" devices="tripinfo_f32.17 routing_f32.17" vType="DEFAULT_VEHTYPE" speedFactor="0.98" vaporized=""/>
    <tripinfo id="f34.19" depart="277.00" departLane="Si_0" departPos="5.10" departSpeed="0.00" departDelay="2.00" arrival="421.00" arrivalLane="No_0" arrivalPos="982.40" arrivalSpeed="10.94" duration="144.00" routeLength="1993.61" waitingTime="0.00" waitingCount="0" stopTime="0.00" timeLoss="11.52" rerouteNo="0" devices="tripinfo_f34.19 routing_f34.19" vType="DEFAULT_VEHTYPE" speedFactor="1.06" vaporized=""/>
    <tripinfo id="f34.20" depart="283.00" departLane="Si_0" departPos="5.10" departSpeed="0.00" departDelay="2.00" arrival="424.00" arrivalLane="No_0" arrivalPos="982.40" arrivalSpeed="12.26" duration="141.00" routeLength="1993.61" waitingTime="0.00" waitingCount="0" stopTime="0.00" timeLoss="15.82" rerouteNo="0" devices="tripinfo_f34.20 routing_f34.20" vType="DEFAULT_VEHTYPE" speedFactor="1.13" vaporized=""/>
    <tripinfo id="f41.18" depart="291.00" departLane="Ni_0" departPos="5.10" departSpeed="0.00" departDelay="0.00" arrival="427.00" arrivalLane="Wo_0" arrivalPos="976.00" arrivalSpeed="12.86" duration="136.00" routeLength="1965.03" waitingTime="0.00" waitingCount="0" stopTime="0.00" timeLoss="20.54" rerouteNo="0" devices="tripinfo_f41.18 routing_f41.18" vType="DEFAULT_VEHTYPE" speedFactor="1.21" vaporized=""/>
    <tripinfo id="f34.21" depart="291.00" departLane="Si_0" departPos="5.10" departSpeed="0.00" departDelay="0.00" arrival="434.00" arrivalLane="No_0" arrivalPos="982.40" arrivalSpeed="11.47" duration="143.00" routeLength="1993.61" waitingTime="0.00" waitingCount="0" stopTime="0.00" timeLoss="13.31" rerouteNo="0" devices="tripinfo_f34.21 routing_f34.21" vType="DEFAULT_VEHTYPE" speedFactor="1.09" vaporized=""/>
    <tripinfo id="f34.18" depart="274.00" departLane="Si_0" departPos="5.10" departSpeed="0.00" departDelay="0.00" arrival="440.00" arrivalLane="No_0" arrivalPos="982.40" arrivalSpeed="9.51" duration="166.00" routeLength="1993.61" waitingTime="0.00" waitingCount="0" stopTime="0.00" timeLoss="14.72" rerouteNo="0" devices="tripinfo_f34.18 routing_f34.18" vType="DEFAULT_VEHTYPE" speedFactor="0.93" vaporized=""/>
    <tripinfo id="f13.0" depart="2.00" departLane="Wi_0" departPos="5.10" departSpeed="0.00" departDelay="0.00" arrival="441.00" arrivalLane="So_1" arrivalPos="988.88" arrivalSpeed="11.38" duration="439.00" routeLength="1959.78" waitingTime="301.00" waitingCount="1" stopTime="0.00" timeLoss="314.73" rerouteNo="0" devices="tripinfo_f13.0 routing_f13.0" vType="DEFAULT_VEHTYPE" speedFactor="1.12" vaporized=""/>
    <tripinfo id="f43.9" depart="266.00" departLane="Ni_0" departPos="5.10" departSpeed="0.00" departDelay="1.00" arrival="441.00" arrivalLane="So_0" arrivalPos="988.88" arrivalSpeed="9.50" duration="175.00" routeLength="1993.61" waitingTime="0.00" waitingCount="0" stopTime="0.00" timeLoss="13.99" rerouteNo="0" devices="tripinfo_f43.9 routing_f43.9" vType="DEFAULT_VEHTYPE" speedFactor="0.88" vaporized=""/>
    <tripinfo id="f43.12" depart="286.00" departLane="Ni_0" departPos="5.10" departSpeed="0.00" departDelay="0.00" arrival="448.00" arrivalLane="So_0" arrivalPos="988.88" arrivalSpeed="9.88" duration="162.00" routeLength="1993.61" waitingTime="0.00" waitingCount="0" stopTime="0.00" timeLoss="14.35" rerouteNo="0" devices="tripinfo_f43.12 routing_f43.12" vType="DEFAULT_VEHTYPE" speedFactor="0.96" vaporized=""/>
    <tripinfo id="f43.10" depart="275.00" departLane="Ni_0" departPos="5.10" departSpeed="0.00" departDelay="3.00" arrival="450.00" arrivalLane="So_0" arrivalPos="988.88" arrivalSpeed="8.82" duration="175.00" routeLength="1993.61" waitingTime="0.00" waitingCount="0" stopTime="0.00" timeLoss="13.90" rerouteNo="0" devices="tripinfo_f43.10 routing_f43.10" vType="DEFAULT_VEHTYPE" speedFactor="0.88" vaporized=""/>