<?xml version="1.0" encoding="UTF-8"?>

<!-- generated on Mon Nov 25 19:38:29 2019 by Eclipse SUMO Version 1.3.1
<configuration xmlns:xsi="http://www.w3.org/2001/XMLSchema-instance" xsi:noNamespaceSchemaLocation="http://sumo.dlr.de/xsd/sumoConfiguration.xsd">

    <input>
        <net-file value="data/cross.net.xml"/>
        <route-files value="data/cross.rou.xml"/>
        <additional-files value="data/cross.add.xml"/>
    </input>

    <output>
        <tripinfo-output value="tripinfo.xml"/>
    </output>

    <time>
        <begin value="0"/>
    </time>

    <report>
        <verbose value="true"/>
        <no-step-log value="true"/>
    </report>

    <traci_server>
        <remote-port value="55993"/>
    </traci_server>

    <random_number>
        <random value="true"/>
    </random_number>

</configuration>
-->

<tripinfos xmlns:xsi="http://www.w3.org/2001/XMLSchema-instance" xsi:noNamespaceSchemaLocation="http://sumo.dlr.de/xsd/tripinfo_file.xsd">
    <tripinfo id="f13.0" depart="8.00" departLane="Wi_0" departPos="5.10" departSpeed="0.00" departDelay="0.00" arrival="141.00" arrivalLane="So_0" arrivalPos="988.88" arrivalSpeed="12.70" duration="133.00" routeLength="1971.51" waitingTime="0.00" waitingCount="0" stopTime="0.00" timeLoss="12.59" rerouteNo="0" devices="tripinfo_f13.0 routing_f13.0" vType="DEFAULT_VEHTYPE" speedFactor="1.17" vaporized=""/>
    <tripinfo id="f12.0" depart="13.00" departLane="Wi_0" departPos="5.10" departSpeed="0.00" departDelay="0.00" arrival="153.00" arrivalLane="Eo_0" arrivalPos="987.55" arrivalSpeed="11.43" duration="140.00" routeLength="1985.88" waitingTime="0.00" waitingCount="0" stopTime="0.00" timeLoss="10.98" rerouteNo="0" devices="tripinfo_f12.0 routing_f12.0" vType="DEFAULT_VEHTYPE" speedFactor="1.10" vaporized=""/>
    <tripinfo id="f42.0" depart="22.00" departLane="Ni_0" departPos="5.10" departSpeed="0.00" departDelay="1.00" arrival="157.00" arrivalLane="Eo_0" arrivalPos="987.55" arrivalSpeed="12.59" duration="135.00" routeLength="1991.99" waitingTime="0.00" waitingCount="0" stopTime="0.00" timeLoss="11.81" rerouteNo="0" devices="tripinfo_f42.0 routing_f42.0" vType="DEFAULT_VEHTYPE" speedFactor="1.16" vaporized=""/>
    <tripinfo id="f31.1" depart="26.00" departLane="Si_0" departPos="5.10" departSpeed="0.00" departDelay="3.00" arrival="169.00" arrivalLane="Wo_0" arrivalPos="976.00" arrivalSpeed="11.37" duration="143.00" routeLength="1986.92" waitingTime="0.00" waitingCount="0" stopTime="0.00" timeLoss="14.03" rerouteNo="0" devices="tripinfo_f31.1 routing_f31.1" vType="DEFAULT_VEHTYPE" speedFactor="1.10" vaporized=""/>
    <tripinfo id="f23.0" depart="6.00" departLane="Ei_0" departPos="5.10" departSpeed="0.00" departDelay="0.00" arrival="192.00" arrivalLane="So_0" arrivalPos="988.88" arrivalSpeed="12.06" duration="186.00" routeLength="1998.47" waitingTime="38.00" waitingCount="1" stopTime="0.00" timeLoss="55.68" rerouteNo="0" devices="tripinfo_f23.0 routing_f23.0" vType="DEFAULT_VEHTYPE" speedFactor="1.09" vaporized=""/>
    <tripinfo id="f31.0" depart="23.00" departLane="Si_0" departPos="5.10" departSpeed="0.00" departDelay="1.00" arrival="199.00" arrivalLane="Wo_0" arrivalPos="976.00" arrivalSpeed="9.51" duration="176.00" routeLength="1986.92" waitingTime="0.00" waitingCount="0" stopTime="0.00" timeLoss="13.28" rerouteNo="0" devices="tripinfo_f31.0 routing_f31.0" vType="DEFAULT_VEHTYPE" speedFactor="0.87" vaporized=""/>
    <tripinfo id="f23.3" depart="31.00" departLane="Ei_0" departPos="5.10" departSpeed="0.00" departDelay="1.00" arrival="211.00" arrivalLane="So_0" arrivalPos="988.88" arrivalSpeed="10.16" duration="180.00" routeLength="1998.47" waitingTime="11.00" waitingCount="1" stopTime="0.00" timeLoss="30.16" rerouteNo="0" devices="tripinfo_f23.3 routing_f23.3" vType="DEFAULT_VEHTYPE" speedFactor="0.95" vaporized=""/>
    <tripinfo id="f23.4" depart="40.00" departLane="Ei_0" departPos="5.10" departSpeed="0.00" departDelay="0.00" arrival="213.00" arrivalLane="So_0" arrivalPos="988.88" arrivalSpeed="10.13" duration="173.00" routeLength="1998.47" waitingTime="5.00" waitingCount="1" stopTime="0.00" timeLoss="28.20" rerouteNo="0" devices="tripinfo_f23.4 routing_f23.4" vType="DEFAULT_VEHTYPE" speedFactor="0.99" vaporized=""/>
    <tripinfo id="f23.5" depart="60.00" departLane="Ei_0" departPos="5.10" departSpeed="0.00" departDelay="2.00" arrival="213.00" arrivalLane="So_1" arrivalPos="988.88" arrivalSpeed="11.30" duration="153.00" routeLength="1998.47" waitingTime="0.00" waitingCount="0" stopTime="0.00" timeLoss="16.36" rerouteNo="0" devices="tripinfo_f23.5 routing_f23.5" vType="DEFAULT_VEHTYPE" speedFactor="1.05" vaporized=""/>
    <tripinfo id="f23.1" depart="9.00" departLane="Ei_0" departPos="5.10" departSpeed="0.00" departDelay="2.00" arrival="217.00" arrivalLane="So_0" arrivalPos="988.88" arrivalSpeed="9.72" duration="208.00" routeLength="1998.47" waitingTime="27.00" waitingCount="1" stopTime="0.00" timeLoss="45.30" rerouteNo="0" devices="tripinfo_f23.1 routing_f23.1" vType="DEFAULT_VEHTYPE" speedFactor="0.88" vaporized=""/>
    <tripinfo id="f14.0" depart="44.00" departLane="Wi_0" departPos="5.10" departSpeed="0.00" departDelay="0.00" arrival="222.00" arrivalLane="No_0" arrivalPos="982.40" arrivalSpeed="8.99" duration="178.00" routeLength="1980.44" waitingTime="0.00" waitingCount="0" stopTime="0.00" timeLoss="15.92" rerouteNo="0" devices="tripinfo_f14.0 routing_f14.0" vType="DEFAULT_VEHTYPE" speedFactor="0.87" vaporized=""/>
    <tripinfo id="f12.2" depart="55.00" departLane="Wi_0" departPos="5.10" departSpeed="0.00" departDelay="0.00" arrival="227.00" arrivalLane="Eo_1" arrivalPos="987.55" arrivalSpeed="11.21" duration="172.00" routeLength="1985.88" waitingTime="23.00" waitingCount="1" stopTime="0.00" timeLoss="41.90" rerouteNo="0" devices="tripinfo_f12.2 routing_f12.2" vType="DEFAULT_VEHTYPE" speedFactor="1.09" vaporized=""/>
    <tripinfo id="f12.1" depart="22.00" departLane="Wi_0" departPos="5.10" departSpeed="0.00" departDelay="0.00" arrival="228.00" arrivalLane="Eo_0" arrivalPos="987.55" arrivalSpeed="10.79" duration="206.00" routeLength="1985.88" waitingTime="55.00" waitingCount="1" stopTime="0.00" timeLoss="74.13" rerouteNo="0" devices="tripinfo_f12.1 routing_f12.1" vType="DEFAULT_VEHTYPE" speedFactor="1.07" vaporized=""/>
    <tripinfo id="f12.4" depart="86.00" departLane="Wi_0" departPos="5.10" departSpeed="0.00" departDelay="0.00" arrival="229.00" arrivalLane="Eo_1" arrivalPos="987.55" arrivalSpeed="12.20" duration="143.00" routeLength="1985.88" waitingTime="0.00" waitingCount="0" stopTime="0.00" timeLoss="21.14" rerouteNo="0" devices="tripinfo_f12.4 routing_f12.4" vType="DEFAULT_VEHTYPE" speedFactor="1.16" vaporized=""/>
    <tripinfo id="f13.1" depart="47.00" departLane="Wi_0" departPos="5.10" departSpeed="0.00" departDelay="2.00" arrival="236.00" arrivalLane="So_0" arrivalPos="988.88" arrivalSpeed="10.23" duration="189.00" routeLength="1971.51" waitingTime="27.00" waitingCount="1" stopTime="0.00" timeLoss="48.03" rerouteNo="0" devices="tripinfo_f13.1 routing_f13.1" vType="DEFAULT_VEHTYPE" speedFactor="1.00" vaporized=""/>
    <tripinfo id="f13.2" depart="97.00" departLane="Wi_0" departPos="5.10" departSpeed="0.00" departDelay="3.00" arrival="237.00" arrivalLane="So_1" arrivalPos="988.88" arrivalSpeed="12.16" duration="140.00" routeLength="1971.51" waitingTime="0.00" waitingCount="0" stopTime="0.00" timeLoss="17.54" rerouteNo="0" devices="tripinfo_f13.2 routing_f13.2" vType="DEFAULT_VEHTYPE" speedFactor="1.15" vaporized=""/>
    <tripinfo id="f14.2" depart="103.00" departLane="Wi_0" departPos="5.10" departSpeed="0.00" departDelay="5.00" arrival="237.00" arrivalLane="No_0" arrivalPos="982.40" arrivalSpeed="12.89" duration="134.00" routeLength="1980.44" waitingTime="0.00" waitingCount="0" stopTime="0.00" timeLoss="16.04" rerouteNo="0" devices="tripinfo_f14.2 routing_f14.2" vType="DEFAULT_VEHTYPE" speedFactor="1.20" vaporized=""/>
    <tripinfo id="f23.2" depart="25.00" departLane="Ei_0" departPos="5.10" departSpeed="0.00" departDelay="0.00" arrival="238.00" arrivalLane="So_0" arrivalPos="988.88" arrivalSpeed="7.94" duration="213.00" routeLength="1998.47" waitingTime="6.00" waitingCount="1" stopTime="0.00" timeLoss="29.77" rerouteNo="0" devices="tripinfo_f23.2 routing_f23.2" vType="DEFAULT_VEHTYPE" speedFactor="0.78" vaporized=""/>
    <tripinfo id="f12.5" depart="94.00" departLane="Wi_0" departPos="5.10" departSpeed="0.00" departDelay="0.00" arrival="238.00" arrivalLane="Eo_0" arrivalPos="987.55" arrivalSpeed="11.20" duration="144.00" routeLength="1985.88" waitingTime="0.00" waitingCount="0" stopTime="0.00" timeLoss="16.14" rerouteNo="0" devices="tripinfo_f12.5 routing_f12.5" vType="DEFAULT_VEHTYPE" speedFactor="1.10" vaporized=""/>
    <tripinfo id="f23.8" depart="112.00" departLane="Ei_0" departPos="5.10" departSpeed="0.00" departDelay="5.00" arrival="254.00" arrivalLane="So_0" arrivalPos="988.88" arrivalSpeed="12.15" duration="142.00" routeLength="1998.47" waitingTime="0.00" waitingCount="0" stopTime="0.00" timeLoss="23.75" rerouteNo="0" devices="tripinfo_f23.8 routing_f23.8" vType="DEFAULT_VEHTYPE" speedFactor="1.21" vaporized=""/>
    <tripinfo id="f21.0" depart="37.00" departLane="Ei_0" departPos="5.10" departSpeed="0.00" departDelay="2.00" arrival="256.00" arrivalLane="Wo_0" arrivalPos="976.00" arrivalSpeed="10.68" duration="219.00" routeLength="1985.88" waitingTime="66.00" waitingCount="1" stopTime="0.00" timeLoss="87.60" rerouteNo="0" devices="tripinfo_f21.0 routing_f21.0" vType="DEFAULT_VEHTYPE" speedFactor="1.07" vaporized=""/>
    <tripinfo id="f12.3" depart="77.00" departLane="Wi_0" departPos="5.10" departSpeed="0.00" departDelay="0.00" arrival="259.00" arrivalLane="Eo_0" arrivalPos="987.55" arrivalSpeed="8.91" duration="182.00" routeLength="1985.88" waitingTime="0.00" waitingCount="0" stopTime="0.00" timeLoss="15.19" rerouteNo="0" devices="tripinfo_f12.3 routing_f12.3" vType="DEFAULT_VEHTYPE" speedFactor="0.85" vaporized=""/>
    <tripinfo id="f21.3" depart="82.00" departLane="Ei_0" departPos="5.10" departSpeed="0.00" departDelay="0.00" arrival="261.00" arrivalLane="Wo_0" arrivalPos="976.00" arrivalSpeed="10.86" duration="179.00" routeLength="1985.88" waitingTime="27.00" waitingCount="1" stopTime="0.00" timeLoss="46.27" rerouteNo="0" devices="tripinfo_f21.3 routing_f21.3" vType="DEFAULT_VEHTYPE" speedFactor="1.06" vaporized=""/>
    <tripinfo id="f13.3" depart="100.00" departLane="Wi_0" departPos="5.10" departSpeed="0.00" departDelay="5.00" arrival="261.00" arrivalLane="So_0" arrivalPos="988.88" arrivalSpeed="10.48" duration="161.00" routeLength="1971.51" waitingTime="0.00" waitingCount="0" stopTime="0.00" timeLoss="13.34" rerouteNo="0" devices="tripinfo_f13.3 routing_f13.3" vType="DEFAULT_VEHTYPE" speedFactor="0.96" vaporized=""/>
    <tripinfo id="f24.3" depart="34.00" departLane="Ei_0" departPos="5.10" departSpeed="0.00" departDelay="4.00" arrival="263.00" arrivalLane="No_0" arrivalPos="982.40" arrivalSpeed="10.65" duration="229.00" routeLength="1976.58" waitingTime="70.00" waitingCount="1" stopTime="0.00" timeLoss="96.70" rerouteNo="0" devices="tripinfo_f24.3 routing_f24.3" vType="DEFAULT_VEHTYPE" speedFactor="1.07" vaporized=""/>
    <tripinfo id="f21.1" depart="44.00" departLane="Ei_0" departPos="5.10" departSpeed="0.00" departDelay="0.00" arrival="263.00" arrivalLane="Wo_0" arrivalPos="976.00" arrivalSpeed="11.12" duration="219.00" routeLength="1985.88" waitingTime="62.00" waitingCount="1" stopTime="0.00" timeLoss="81.86" rerouteNo="0" devices="tripinfo_f21.1 routing_f21.1" vType="DEFAULT_VEHTYPE" speedFactor="1.03" vaporized=""/>
    <tripinfo id="f14.1" depart="90.00" departLane="Wi_0" departPos="5.10" departSpeed="0.00" departDelay="0.00" arrival="265.00" arrivalLane="No_0" arrivalPos="982.40" arrivalSpeed="9.25" duration="175.00" routeLength="1980.44" waitingTime="0.00" waitingCount="0" stopTime="0.00" timeLoss="13.75" rerouteNo="0" devices="tripinfo_f14.1 routing_f14.1" vType="DEFAULT_VEHTYPE" speedFactor="0.88" vaporized=""/>
    <tripinfo id="f24.1" depart="15.00" departLane="Ei_0" departPos="5.10" departSpeed="0.00" departDelay="3.00" arrival="266.00" arrivalLane="No_1" arrivalPos="982.40" arrivalSpeed="10.62" duration="251.00" routeLength="1976.58" waitingTime="88.00" waitingCount="1" stopTime="0.00" timeLoss="110.27" rerouteNo="0" devices="tripinfo_f24.1 routing_f24.1" vType="DEFAULT_VEHTYPE" speedFactor="1.00" vaporized=""/>
    <tripinfo id="f21.4" depart="88.00" departLane="Ei_0" departPos="5.10" departSpeed="0.00" departDelay="0.00" arrival="269.00" arrivalLane="Wo_0" arrivalPos="976.00" arrivalSpeed="11.07" duration="181.00" routeLength="1985.88" waitingTime="20.00" waitingCount="1" stopTime="0.00" timeLoss="42.71" rerouteNo="0" devices="tripinfo_f21.4 routing_f21.4" vType="DEFAULT_VEHTYPE" speedFactor="1.02" vaporized=""/>
    <tripinfo id="f24.0" depart="12.00" departLane="Ei_0" departPos="5.10" departSpeed="0.00" departDelay="4.00" arrival="272.00" arrivalLane="No_0" arrivalPos="982.40" arrivalSpeed="8.91" duration="260.00" routeLength="1976.58" waitingTime="88.00" waitingCount="1" stopTime="0.00" timeLoss="104.75" rerouteNo="0" devices="tripinfo_f24.0 routing_f24.0" vType="DEFAULT_VEHTYPE" speedFactor="0.91" vaporized=""/>
    <tripinfo id="f24.6" depart="66.00" departLane="Ei_0" departPos="5.10" departSpeed="0.00" departDelay="0.00" arrival="272.00" arrivalLane="No_1" arrivalPos="982.40" arrivalSpeed="11.36" duration="206.00" routeLength="1976.58" waitingTime="45.00" waitingCount="1" stopTime="0.00" timeLoss="71.30" rerouteNo="0" devices="tripinfo_f24.6 routing_f24.6" vType="DEFAULT_VEHTYPE" speedFactor="1.04" vaporized=""/>
    <tripinfo id="f23.7" depart="106.00" departLane="Ei_0" departPos="5.10" departSpeed="0.00" departDelay="0.00" arrival="272.00" arrivalLane="So_0" arrivalPos="988.88" arrivalSpeed="9.76" duration="166.00" routeLength="1998.47" waitingTime="0.00" waitingCount="0" stopTime="0.00" timeLoss="18.70" rerouteNo="0" devices="tripinfo_f23.7 routing_f23.7" vType="DEFAULT_VEHTYPE" speedFactor="0.97" vaporized=""/>
    <tripinfo id="f21.8" depart="118.00" departLane="Ei_0" departPos="5.10" departSpeed="0.00" departDelay="7.00" arrival="272.00" arrivalLane="Wo_1" arrivalPos="976.00" arrivalSpeed="12.19" duration="154.00" routeLength="1985.88" waitingTime="5.00" waitingCount="1" stopTime="0.00" timeLoss="34.80" rerouteNo="0" devices="tripinfo_f21.8 routing_f21.8" vType="DEFAULT_VEHTYPE" speedFactor="1.18" vaporized=""/>
    <tripinfo id="f21.2" depart="77.00" departLane="Ei_0" departPos="5.10" departSpeed="0.00" departDelay="0.00" arrival="273.00" arrivalLane="Wo_0" arrivalPos="976.00" arrivalSpeed="9.57" duration="196.00" routeLength="1985.88" waitingTime="27.00" waitingCount="1" stopTime="0.00" timeLoss="49.74" rerouteNo="0" devices="tripinfo_f21.2 routing_f21.2" vType="DEFAULT_VEHTYPE" speedFactor="0.96" vaporized=""/>
    <tripinfo id="f24.4" depart="57.00" departLane="Ei_0" departPos="5.10" departSpeed="0.00" departDelay="0.00" arrival="274.00" arrivalLane="No_0" arrivalPos="982.40" arrivalSpeed="10.06" duration="217.00" routeLength="1976.58" waitingTime="51.00" waitingCount="1" stopTime="0.00" timeLoss="73.83" rerouteNo="0" devices="tripinfo_f24.4 routing_f24.4" vType="DEFAULT_VEHTYPE" speedFactor="0.99" vaporized=""/>
    <tripinfo id="f24.7" depart="102.00" departLane="Ei_0" departPos="5.10" departSpeed="0.00" departDelay="0.00" arrival="274.00" arrivalLane="No_1" arrivalPos="982.40" arrivalSpeed="11.25" duration="172.00" routeLength="1976.58" waitingTime="14.00" waitingCount="1" stopTime="0.00" timeLoss="40.35" rerouteNo="0" devices="tripinfo_f24.7 routing_f24.7" vType="DEFAULT_VEHTYPE" speedFactor="1.07" vaporized=""/>
    <tripinfo id="f21.7" depart="109.00" departLane="Ei_0" departPos="5.10" departSpeed="0.00" departDelay="2.00" arrival="275.00" arrivalLane="Wo_1" arrivalPos="976.00" arrivalSpeed="10.97" duration="166.00" routeLength="1985.88" waitingTime="7.00" waitingCount="1" stopTime="0.00" timeLoss="31.99" rerouteNo="0" devices="tripinfo_f21.7 routing_f21.7" vType="DEFAULT_VEHTYPE" speedFactor="1.06" vaporized=""/>
    <tripinfo id="f24.10" depart="124.00" departLane="Ei_0" departPos="5.10" departSpeed="0.00" departDelay="8.00" arrival="276.00" arrivalLane="No_1" arrivalPos="982.40" arrivalSpeed="11.78" duration="152.00" routeLength="1976.58" waitingTime="0.00" waitingCount="0" stopTime="0.00" timeLoss="26.16" rerouteNo="0" devices="tripinfo_f24.10 routing_f24.10" vType="DEFAULT_VEHTYPE" speedFactor="1.12" vaporized=""/>
    <tripinfo id="f23.6" depart="85.00" departLane="Ei_0" departPos="5.10" departSpeed="0.00" departDelay="2.00" arrival="278.00" arrivalLane="So_0" arrivalPos="988.88" arrivalSpeed="9.47" duration="193.00" routeLength="1998.47" waitingTime="13.00" waitingCount="1" stopTime="0.00" timeLoss="31.47" rerouteNo="0" devices="tripinfo_f23.6 routing_f23.6" vType="DEFAULT_VEHTYPE" speedFactor="0.88" vaporized=""/>
    <tripinfo id="f24.2" depart="28.00" departLane="Ei_0" departPos="5.10" departSpeed="0.00" departDelay="2.00" arrival="280.00" arrivalLane="No_0" arrivalPos="982.40" arrivalSpeed="9.67" duration="252.00" routeLength="1976.58" waitingTime="70.00" waitingCount="1" stopTime="0.00" timeLoss="92.14" rerouteNo="0" devices="tripinfo_f24.2 routing_f24.2" vType="DEFAULT_VEHTYPE" speedFactor="0.88" vaporized=""/>
    <tripinfo id="f24.8" depart="115.00" departLane="Ei_0" departPos="5.10" departSpeed="0.00" departDelay="8.00" arrival="280.00" arrivalLane="No_1" arrivalPos="982.40" arrivalSpeed="10.73" duration="165.00" routeLength="1976.58" waitingTime="1.00" waitingCount="1" stopTime="0.00" timeLoss="26.40" rerouteNo="0" devices="tripinfo_f24.8 routing_f24.8" vType="DEFAULT_VEHTYPE" speedFactor="1.02" vaporized=""/>
    <tripinfo id="f24.5" depart="63.00" departLane="Ei_0" departPos="5.10" departSpeed="0.00" departDelay="0.00" arrival="282.00" arrivalLane="No_0" arrivalPos="982.40" arrivalSpeed="10.70" duration="219.00" routeLength="1976.58" waitingTime="45.00" waitingCount="1" stopTime="0.00" timeLoss="74.22" rerouteNo="0" devices="tripinfo_f24.5 routing_f24.5" vType="DEFAULT_VEHTYPE" speedFactor="0.97" vaporized=""/>
    <tripinfo id="f21.5" depart="91.00" departLane="Ei_0" departPos="5.10" departSpeed="0.00" departDelay="1.00" arrival="282.00" arrivalLane="Wo_0" arrivalPos="976.00" arrivalSpeed="8.91" duration="191.00" routeLength="1985.88" waitingTime="16.00" waitingCount="1" stopTime="0.00" timeLoss="37.28" rerouteNo="0" devices="tripinfo_f21.5 routing_f21.5" vType="DEFAULT_VEHTYPE" speedFactor="0.92" vaporized=""/>
    <tripinfo id="f24.12" depart="133.00" departLane="Ei_0" departPos="5.10" departSpeed="0.00" departDelay="7.00" arrival="282.00" arrivalLane="No_1" arrivalPos="982.40" arrivalSpeed="11.77" duration="149.00" routeLength="1976.58" waitingTime="0.00" waitingCount="0" stopTime="0.00" timeLoss="20.52" rerouteNo="0" devices="tripinfo_f24.12 routing_f24.12" vType="DEFAULT_VEHTYPE" speedFactor="1.09" vaporized=""/>
    <tripinfo id="f21.6" depart="94.00" departLane="Ei_0" departPos="5.10" departSpeed="0.00" departDelay="1.00" arrival="284.00" arrivalLane="Wo_0" arrivalPos="976.00" arrivalSpeed="9.92" duration="190.00" routeLength="1985.88" waitingTime="14.00" waitingCount="1" stopTime="0.00" timeLoss="35.42" rerouteNo="0" devices="tripinfo_f21.6 routing_f21.6" vType="DEFAULT_VEHTYPE" speedFactor="0.91" vaporized=""/>
    <tripinfo id="f24.11" depart="127.00" departLane="Ei_0" departPos="5.10" departSpeed="0.00" departDelay="3.00" arrival="286.00" arrivalLane="No_0" arrivalPos="982.40" arrivalSpeed="11.36" duration="159.00" routeLength="1976.58" waitingTime="0.00" waitingCount="0" stopTime="0.00" timeLoss="25.29" rerouteNo="0" devices="tripinfo_f24.11 routing_f24.11" vType="DEFAULT_VEHTYPE" speedFactor="1.05" vaporized=""/>
    <tripinfo id="f21.9" depart="130.00" departLane="Ei_0" departPos="5.10" departSpeed="0.00" departDelay="4.00" arrival="292.00" arrivalLane="Wo_0" arrivalPos="976.00" arrivalSpeed="10.23" duration="162.00" routeLength="1985.88" waitingTime="0.00" waitingCount="0" stopTime="0.00" timeLoss="12.93" rerouteNo="0" devices="tripinfo_f21.9 routing_f21.9" vType="DEFAULT_VEHTYPE" speedFactor="0.95" vaporized=""/>
    <tripinfo id="f31.6" depart="116.00" departLane="Si_0" departPos="5.10" departSpeed="0.00" departDelay="0.00" arrival="294.00" arrivalLane="Wo_1" arrivalPos="976.00" arrivalSpeed="12.30" duration="178.00" routeLength="1986.92" waitingTime="35.00" waitingCount="1" stopTime="0.00" timeLoss="59.65" rerouteNo="0" devices="tripinfo_f31.6 routing_f31.6" vType="DEFAULT_VEHTYPE" speedFactor="1.19" vaporized=""/>
    <tripinfo id="f23.9" depart="136.00" departLane="Ei_0" departPos="5.10" departSpeed="0.00" departDelay="6.00" arrival="294.00" arrivalLane="So_0" arrivalPos="988.88" arrivalSpeed="9.63" duration="158.00" routeLength="1998.47" waitingTime="0.00" waitingCount="0" stopTime="0.00" timeLoss="12.72" rerouteNo="0" devices="tripinfo_f23.9 routing_f23.9" vType="DEFAULT_VEHTYPE" speedFactor="0.98" vaporized=""/>
    <tripinfo id="f34.3" depart="37.00" departLane="Si_0" departPos="5.10" departSpeed="0.00" departDelay="0.00" arrival="295.00" arrivalLane="No_1" arrivalPos="982.40" arrivalSpeed="12.44" duration="258.00" routeLength="1993.61" waitingTime="107.00" waitingCount="1" stopTime="0.00" timeLoss="133.14" rerouteNo="0" devices="tripinfo_f34.3 routing_f34.3" vType="DEFAULT_VEHTYPE" speedFactor="1.14" vaporized=""/>
    <tripinfo id="f24.9" depart="121.00" departLane="Ei_0" departPos="5.10" departSpeed="0.00" departDelay="9.00" arrival="296.00" arrivalLane="No_0" arrivalPos="982.40" arrivalSpeed="8.59" duration="175.00" routeLength="1976.58" waitingTime="0.00" waitingCount="0" stopTime="0.00" timeLoss="17.01" rerouteNo="0" devices="tripinfo_f24.9 routing_f24.9" vType="DEFAULT_VEHTYPE" speedFactor="0.89" vaporized=""/>
    <tripinfo id="f31.5" depart="113.00" departLane="Si_0" departPos="5.10" departSpeed="0.00" departDelay="0.00" arrival="296.00" arrivalLane="Wo_1" arrivalPos="976.00" arrivalSpeed="11.96" duration="183.00" routeLength="1986.92" waitingTime="36.00" waitingCount="1" stopTime="0.00" timeLoss="63.87" rerouteNo="0" devices="tripinfo_f31.5 routing_f31.5" vType="DEFAULT_VEHTYPE" speedFactor="1.19" vaporized=""/>
    <tripinfo id="f32.0" depart="9.00" departLane="Si_0" departPos="5.10" departSpeed="0.00" departDelay="3.00" arrival="297.00" arrivalLane="Eo_0" arrivalPos="987.55" arrivalSpeed="9.90" duration="288.00" routeLength="1983.06" waitingTime="128.00" waitingCount="1" stopTime="0.00" timeLoss="145.31" rerouteNo="0" devices="tripinfo_f32.0 routing_f32.0" vType="DEFAULT_VEHTYPE" speedFactor="0.99" vaporized=""/>
    <tripinfo id="f32.1" depart="19.00" departLane="Si_0" departPos="5.10" departSpeed="0.00" departDelay="1.00" arrival="297.00" arrivalLane="Eo_1" arrivalPos="987.55" arrivalSpeed="10.10" duration="278.00" routeLength="1983.06" waitingTime="116.00" waitingCount="1" stopTime="0.00" timeLoss="139.56" rerouteNo="0" devices="tripinfo_f32.1 routing_f32.1" vType="DEFAULT_VEHTYPE" speedFactor="1.02" vaporized=""/>
    <tripinfo id="f31.3" depart="68.00" departLane="Si_0" departPos="5.10" departSpeed="0.00" departDelay="2.00" arrival="297.00" arrivalLane="Wo_0" arrivalPos="976.00" arrivalSpeed="11.05" duration="229.00" routeLength="1986.92" waitingTime="72.00" waitingCount="1" stopTime="0.00" timeLoss="92.22" rerouteNo="0" devices="tripinfo_f31.3 routing_f31.3" vType="DEFAULT_VEHTYPE" speedFactor="1.03" vaporized=""/>
    <tripinfo id="f31.4" depart="81.00" departLane="Si_0" departPos="5.10" departSpeed="0.00" departDelay="1.00" arrival="300.00" arrivalLane="Wo_0" arrivalPos="976.00" arrivalSpeed="10.57" duration="219.00" routeLength="1986.92" waitingTime="61.00" waitingCount="1" stopTime="0.00" timeLoss="81.37" rerouteNo="0" devices="tripinfo_f31.4 routing_f31.4" vType="DEFAULT_VEHTYPE" speedFactor="1.03" vaporized=""/>
    <tripinfo id="f32.5" depart="78.00" departLane="Si_0" departPos="5.10" departSpeed="0.00" departDelay="0.00" arrival="303.00" arrivalLane="Eo_0" arrivalPos="987.55" arrivalSpeed="11.68" duration="225.00" routeLength="1983.06" waitingTime="71.00" waitingCount="1" stopTime="0.00" timeLoss="94.56" rerouteNo="0" devices="tripinfo_f32.5 routing_f32.5" vType="DEFAULT_VEHTYPE" speedFactor="1.09" vaporized=""/>
    <tripinfo id="f32.6" depart="97.00" departLane="Si_0" departPos="5.10" departSpeed="0.00" departDelay="0.00" arrival="304.00" arrivalLane="Eo_1" arrivalPos="987.55" arrivalSpeed="11.94" duration="207.00" routeLength="1983.06" waitingTime="55.00" waitingCount="1" stopTime="0.00" timeLoss="78.86" rerouteNo="0" devices="tripinfo_f32.6 routing_f32.6" vType="DEFAULT_VEHTYPE" speedFactor="1.10" vaporized=""/>
    <tripinfo id="f31.7" depart="130.00" departLane="Si_0" departPos="5.10" departSpeed="0.00" departDelay="0.00" arrival="306.00" arrivalLane="Wo_0" arrivalPos="976.00" arrivalSpeed="10.72" duration="176.00" routeLength="1986.92" waitingTime="16.00" waitingCount="1" stopTime="0.00" timeLoss="41.66" rerouteNo="0" devices="tripinfo_f31.7 routing_f31.7" vType="DEFAULT_VEHTYPE" speedFactor="1.06" vaporized=""/>
    <tripinfo id="f34.1" depart="16.00" departLane="Si_0" departPos="5.10" departSpeed="0.00" departDelay="0.00" arrival="308.00" arrivalLane="No_0" arrivalPos="982.40" arrivalSpeed="9.45" duration="292.00" routeLength="1993.61" waitingTime="119.00" waitingCount="1" stopTime="0.00" timeLoss="137.72" rerouteNo="0" devices="tripinfo_f34.1 routing_f34.1" vType="DEFAULT_VEHTYPE" speedFactor="0.91" vaporized=""/>
    <tripinfo id="f34.4" depart="43.00" departLane="Si_0" departPos="5.10" departSpeed="0.00" departDelay="0.00" arrival="308.00" arrivalLane="No_1" arrivalPos="982.40" arrivalSpeed="10.56" duration="265.00" routeLength="1993.61" waitingTime="98.00" waitingCount="1" stopTime="0.00" timeLoss="118.84" rerouteNo="0" devices="tripinfo_f34.4 routing_f34.4" vType="DEFAULT_VEHTYPE" speedFactor="0.97" vaporized=""/>
    <tripinfo id="f32.2" depart="49.00" departLane="Si_0" departPos="5.10" departSpeed="0.00" departDelay="0.00" arrival="309.00" arrivalLane="Eo_0" arrivalPos="987.55" arrivalSpeed="10.44" duration="260.00" routeLength="1983.06" waitingTime="88.00" waitingCount="1" stopTime="0.00" timeLoss="111.47" rerouteNo="0" devices="tripinfo_f32.2 routing_f32.2" vType="DEFAULT_VEHTYPE" speedFactor="0.95" vaporized=""/>
    <tripinfo id="f34.8" depart="119.00" departLane="Si_0" departPos="5.10" departSpeed="0.00" departDelay="2.00" arrival="310.00" arrivalLane="No_1" arrivalPos="982.40" arrivalSpeed="12.60" duration="191.00" routeLength="1993.61" waitingTime="35.00" waitingCount="1" stopTime="0.00" timeLoss="70.58" rerouteNo="0" devices="tripinfo_f34.8 routing_f34.8" vType="DEFAULT_VEHTYPE" speedFactor="1.18" vaporized=""/>
    <tripinfo id="f34.5" depart="53.00" departLane="Si_0" departPos="5.10" departSpeed="0.00" departDelay="1.00" arrival="311.00" arrivalLane="No_0" arrivalPos="982.40" arrivalSpeed="10.53" duration="258.00" routeLength="1993.61" waitingTime="88.00" waitingCount="1" stopTime="0.00" timeLoss="110.09" rerouteNo="0" devices="tripinfo_f34.5 routing_f34.5" vType="DEFAULT_VEHTYPE" speedFactor="0.96" vaporized=""/>
    <tripinfo id="f34.11" depart="155.00" departLane="Si_0" departPos="5.10" departSpeed="0.00" departDelay="0.00" arrival="311.00" arrivalLane="No_1" arrivalPos="982.40" arrivalSpeed="14.21" duration="156.00" routeLength="1993.61" waitingTime="5.00" waitingCount="1" stopTime="0.00" timeLoss="52.26" rerouteNo="0" devices="tripinfo_f34.11 routing_f34.11" vType="DEFAULT_VEHTYPE" speedFactor="1.36" vaporized=""/>
    <tripinfo id="f34.12" depart="161.00" departLane="Si_0" departPos="5.10" departSpeed="0.00" departDelay="0.00" arrival="313.00" arrivalLane="No_1" arrivalPos="982.40" arrivalSpeed="12.67" duration="152.00" routeLength="1993.61" waitingTime="0.00" waitingCount="0" stopTime="0.00" timeLoss="31.23" rerouteNo="0" devices="tripinfo_f34.12 routing_f34.12" vType="DEFAULT_VEHTYPE" speedFactor="1.17" vaporized=""/>
    <tripinfo id="f32.4" depart="71.00" departLane="Si_0" departPos="5.10" departSpeed="0.00" departDelay="0.00" arrival="314.00" arrivalLane="Eo_0" arrivalPos="987.55" arrivalSpeed="9.72" duration="243.00" routeLength="1983.06" waitingTime="73.00" waitingCount="1" stopTime="0.00" timeLoss="98.58" rerouteNo="0" devices="tripinfo_f32.4 routing_f32.4" vType="DEFAULT_VEHTYPE" speedFactor="0.98" vaporized=""/>
    <tripinfo id="f31.8" depart="137.00" departLane="Si_0" departPos="5.10" departSpeed="0.00" departDelay="2.00" arrival="315.00" arrivalLane="Wo_1" arrivalPos="976.00" arrivalSpeed="10.12" duration="178.00" routeLength="1986.92" waitingTime="9.00" waitingCount="1" stopTime="0.00" timeLoss="33.81" rerouteNo="0" devices="tripinfo_f31.8 routing_f31.8" vType="DEFAULT_VEHTYPE" speedFactor="0.98" vaporized=""/>
    <tripinfo id="f31.2" depart="46.00" departLane="Si_0" departPos="5.10" departSpeed="0.00" departDelay="1.00" arrival="317.00" arrivalLane="Wo_0" arrivalPos="976.00" arrivalSpeed="8.08" duration="271.00" routeLength="1986.92" waitingTime="83.00" waitingCount="1" stopTime="0.00" timeLoss="101.67" rerouteNo="0" devices="tripinfo_f31.2 routing_f31.2" vType="DEFAULT_VEHTYPE" speedFactor="0.84" vaporized=""/>
    <tripinfo id="f34.2" depart="34.00" departLane="Si_0" departPos="5.10" departSpeed="0.00" departDelay="0.00" arrival="318.00" arrivalLane="No_1" arrivalPos="982.40" arrivalSpeed="9.01" duration="284.00" routeLength="1993.61" waitingTime="100.00" waitingCount="1" stopTime="0.00" timeLoss="127.91" rerouteNo="0" devices="tripinfo_f34.2 routing_f34.2" vType="DEFAULT_VEHTYPE" speedFactor="0.91" vaporized=""/>