<?xml version="1.0" encoding="UTF-8"?>

<!-- generated on Sat 23 Nov 2019 09:32:49 PM PST by Eclipse SUMO GUI Version v1_3_1+0752-841bf6b
<configuration xmlns:xsi="http://www.w3.org/2001/XMLSchema-instance" xsi:noNamespaceSchemaLocation="http://sumo.dlr.de/xsd/sumoConfiguration.xsd">

    <input>
        <net-file value="data/cross.net.xml"/>
        <route-files value="data/cross.rou.xml"/>
        <additional-files value="data/cross.add.xml"/>
    </input>

    <output>
        <tripinfo-output value="tripinfo.xml"/>
    </output>

    <time>
        <begin value="0"/>
    </time>

    <report>
        <verbose value="true"/>
        <no-step-log value="true"/>
    </report>

    <traci_server>
        <remote-port value="51863"/>
    </traci_server>

</configuration>
-->

<tripinfos xmlns:xsi="http://www.w3.org/2001/XMLSchema-instance" xsi:noNamespaceSchemaLocation="http://sumo.dlr.de/xsd/tripinfo_file.xsd">
    <tripinfo id="f13.0" depart="0.00" departLane="Wi_0" departPos="5.10" departSpeed="0.00" departDelay="0.00" arrival="10.00" arrivalLane="So_0" arrivalPos="38.65" arrivalSpeed="10.99" duration="10.00" routeLength="81.56" waitingTime="0.00" waitingCount="0" stopTime="0.00" timeLoss="3.39" rerouteNo="0" devices="tripinfo_f13.0 routing_f13.0" vType="DEFAULT_VEHTYPE" speedFactor="1.06" vaporized=""/>
    <tripinfo id="f21.0" depart="0.00" departLane="Ei_0" departPos="5.10" departSpeed="0.00" departDelay="0.00" arrival="12.00" arrivalLane="Wo_0" arrivalPos="38.65" arrivalSpeed="9.13" duration="12.00" routeLength="95.21" waitingTime="0.00" waitingCount="0" stopTime="0.00" timeLoss="4.07" rerouteNo="0" devices="tripinfo_f21.0 routing_f21.0" vType="DEFAULT_VEHTYPE" speedFactor="0.94" vaporized=""/>
    <tripinfo id="f24.0" depart="3.00" departLane="Ei_0" departPos="5.10" departSpeed="0.00" departDelay="3.00" arrival="13.00" arrivalLane="No_0" arrivalPos="38.65" arrivalSpeed="10.87" duration="10.00" routeLength="81.56" waitingTime="0.00" waitingCount="0" stopTime="0.00" timeLoss="3.61" rerouteNo="0" devices="tripinfo_f24.0 routing_f24.0" vType="DEFAULT_VEHTYPE" speedFactor="1.01" vaporized=""/>
    <tripinfo id="f12.0" depart="2.00" departLane="Wi_0" departPos="5.10" departSpeed="0.00" departDelay="1.00" arrival="14.00" arrivalLane="Eo_0" arrivalPos="38.65" arrivalSpeed="11.04" duration="12.00" routeLength="95.21" waitingTime="0.00" waitingCount="0" stopTime="0.00" timeLoss="4.53" rerouteNo="0" devices="tripinfo_f12.0 routing_f12.0" vType="DEFAULT_VEHTYPE" speedFactor="1.03" vaporized=""/>
    <tripinfo id="f34.1" depart="7.00" departLane="Si_0" departPos="5.10" departSpeed="0.00" departDelay="5.00" arrival="20.00" arrivalLane="No_1" arrivalPos="38.65" arrivalSpeed="12.11" duration="13.00" routeLength="95.21" waitingTime="0.00" waitingCount="0" stopTime="0.00" timeLoss="6.50" rerouteNo="0" devices="tripinfo_f34.1 routing_f34.1" vType="DEFAULT_VEHTYPE" speedFactor="1.09" vaporized=""/>
    <tripinfo id="f41.0" depart="0.00" departLane="Ni_0" departPos="5.10" departSpeed="0.00" departDelay="0.00" arrival="21.00" arrivalLane="Wo_0" arrivalPos="38.65" arrivalSpeed="11.91" duration="21.00" routeLength="81.56" waitingTime="5.00" waitingCount="1" stopTime="0.00" timeLoss="14.62" rerouteNo="0" devices="tripinfo_f41.0 routing_f41.0" vType="DEFAULT_VEHTYPE" speedFactor="1.08" vaporized=""/>
    <tripinfo id="f34.0" depart="1.00" departLane="Si_0" departPos="5.10" departSpeed="0.00" departDelay="0.00" arrival="22.00" arrivalLane="No_0" arrivalPos="38.65" arrivalSpeed="8.95" duration="21.00" routeLength="95.21" waitingTime="4.00" waitingCount="1" stopTime="0.00" timeLoss="12.84" rerouteNo="0" devices="tripinfo_f34.0 routing_f34.0" vType="DEFAULT_VEHTYPE" speedFactor="0.89" vaporized=""/>
    <tripinfo id="f32.0" depart="4.00" departLane="Si_0" departPos="5.10" departSpeed="0.00" departDelay="3.00" arrival="22.00" arrivalLane="Eo_0" arrivalPos="38.65" arrivalSpeed="9.38" duration="18.00" routeLength="81.56" waitingTime="2.00" waitingCount="1" stopTime="0.00" timeLoss="11.29" rerouteNo="0" devices="tripinfo_f32.0 routing_f32.0" vType="DEFAULT_VEHTYPE" speedFactor="0.94" vaporized=""/>
    <tripinfo id="f43.0" depart="3.00" departLane="Ni_0" departPos="5.10" departSpeed="0.00" departDelay="1.00" arrival="22.00" arrivalLane="So_1" arrivalPos="38.65" arrivalSpeed="11.35" duration="19.00" routeLength="95.21" waitingTime="2.00" waitingCount="1" stopTime="0.00" timeLoss="11.53" rerouteNo="0" devices="tripinfo_f43.0 routing_f43.0" vType="DEFAULT_VEHTYPE" speedFactor="1.03" vaporized=""/>
    <tripinfo id="f34.2" depart="9.00" departLane="Si_0" departPos="5.10" departSpeed="0.00" departDelay="6.00" arrival="22.00" arrivalLane="No_1" arrivalPos="38.65" arrivalSpeed="10.12" duration="13.00" routeLength="95.21" waitingTime="0.00" waitingCount="0" stopTime="0.00" timeLoss="5.63" rerouteNo="0" devices="tripinfo_f34.2 routing_f34.2" vType="DEFAULT_VEHTYPE" speedFactor="0.93" vaporized=""/>
    <tripinfo id="f41.1" depart="7.00" departLane="Ni_0" departPos="5.10" departSpeed="0.00" departDelay="3.00" arrival="23.00" arrivalLane="Wo_0" arrivalPos="38.65" arrivalSpeed="9.96" duration="16.00" routeLength="81.56" waitingTime="1.00" waitingCount="1" stopTime="0.00" timeLoss="8.98" rerouteNo="0" devices="tripinfo_f41.1 routing_f41.1" vType="DEFAULT_VEHTYPE" speedFactor="0.94" vaporized=""/>
    <tripinfo id="f32.1" depart="12.00" departLane="Si_0" departPos="5.10" departSpeed="0.00" departDelay="9.00" arrival="24.00" arrivalLane="Eo_0" arrivalPos="38.65" arrivalSpeed="9.00" duration="12.00" routeLength="81.56" waitingTime="0.00" waitingCount="0" stopTime="0.00" timeLoss="5.11" rerouteNo="0" devices="tripinfo_f32.1 routing_f32.1" vType="DEFAULT_VEHTYPE" speedFactor="0.88" vaporized=""/>
    <tripinfo id="f43.1" depart="10.00" departLane="Ni_0" departPos="5.10" departSpeed="0.00" departDelay="4.00" arrival="24.00" arrivalLane="So_1" arrivalPos="38.65" arrivalSpeed="11.47" duration="14.00" routeLength="95.21" waitingTime="0.00" waitingCount="0" stopTime="0.00" timeLoss="7.49" rerouteNo="0" devices="tripinfo_f43.1 routing_f43.1" vType="DEFAULT_VEHTYPE" speedFactor="1.13" vaporized=""/>
    <tripinfo id="f43.2" depart="13.00" departLane="Ni_0" departPos="5.10" departSpeed="0.00" departDelay="6.00" arrival="25.00" arrivalLane="So_0" arrivalPos="38.65" arrivalSpeed="12.69" duration="12.00" routeLength="95.21" waitingTime="0.00" waitingCount="0" stopTime="0.00" timeLoss="5.29" rerouteNo="0" devices="tripinfo_f43.2 routing_f43.2" vType="DEFAULT_VEHTYPE" speedFactor="1.15" vaporized=""/>
    <tripinfo id="f32.2" depart="15.00" departLane="Si_0" departPos="5.10" departSpeed="0.00" departDelay="10.00" arrival="26.00" arrivalLane="Eo_0" arrivalPos="38.65" arrivalSpeed="9.07" duration="11.00" routeLength="81.56" waitingTime="0.00" waitingCount="0" stopTime="0.00" timeLoss="4.11" rerouteNo="0" devices="tripinfo_f32.2 routing_f32.2" vType="DEFAULT_VEHTYPE" speedFactor="0.89" vaporized=""/>
    <tripinfo id="f41.2" depart="16.00" departLane="Ni_0" departPos="5.10" departSpeed="0.00" departDelay="9.00" arrival="26.00" arrivalLane="Wo_0" arrivalPos="38.65" arrivalSpeed="9.99" duration="10.00" routeLength="81.56" waitingTime="0.00" waitingCount="0" stopTime="0.00" timeLoss="3.94" rerouteNo="0" devices="tripinfo_f41.2 routing_f41.2" vType="DEFAULT_VEHTYPE" speedFactor="1.01" vaporized=""/>
    <tripinfo id="f31.0" depart="14.00" departLane="Si_0" departPos="5.10" departSpeed="0.00" departDelay="9.00" arrival="30.00" arrivalLane="Wo_0" arrivalPos="38.65" arrivalSpeed="10.30" duration="16.00" routeLength="94.09" waitingTime="0.00" waitingCount="0" stopTime="0.00" timeLoss="8.67" rerouteNo="0" devices="tripinfo_f31.0 routing_f31.0" vType="DEFAULT_VEHTYPE" speedFactor="0.98" vaporized=""/>
    <tripinfo id="f34.3" depart="18.00" departLane="Si_0" departPos="5.10" departSpeed="0.00" departDelay="11.00" arrival="30.00" arrivalLane="No_0" arrivalPos="38.65" arrivalSpeed="10.22" duration="12.00" routeLength="95.21" waitingTime="0.00" waitingCount="0" stopTime="0.00" timeLoss="3.89" rerouteNo="0" devices="tripinfo_f34.3 routing_f34.3" vType="DEFAULT_VEHTYPE" speedFactor="0.93" vaporized=""/>
    <tripinfo id="f42.0" depart="5.00" departLane="Ni_0" departPos="5.10" departSpeed="0.00" departDelay="3.00" arrival="32.00" arrivalLane="Eo_0" arrivalPos="38.65" arrivalSpeed="11.21" duration="27.00" routeLength="94.09" waitingTime="9.00" waitingCount="2" stopTime="0.00" timeLoss="20.35" rerouteNo="0" devices="tripinfo_f42.0 routing_f42.0" vType="DEFAULT_VEHTYPE" speedFactor="1.05" vaporized=""/>
    <tripinfo id="f23.0" depart="9.00" departLane="Ei_0" departPos="5.10" departSpeed="0.00" departDelay="8.00" arrival="36.00" arrivalLane="So_0" arrivalPos="38.65" arrivalSpeed="10.93" duration="27.00" routeLength="94.09" waitingTime="10.00" waitingCount="1" stopTime="0.00" timeLoss="19.87" rerouteNo="0" devices="tripinfo_f23.0 routing_f23.0" vType="DEFAULT_VEHTYPE" speedFactor="1.05" vaporized=""/>
    <tripinfo id="f14.0" depart="18.00" departLane="Wi_0" departPos="5.10" departSpeed="0.00" departDelay="9.00" arrival="36.00" arrivalLane="No_0" arrivalPos="38.65" arrivalSpeed="10.60" duration="18.00" routeLength="94.09" waitingTime="1.00" waitingCount="1" stopTime="0.00" timeLoss="11.06" rerouteNo="0" devices="tripinfo_f14.0 routing_f14.0" vType="DEFAULT_VEHTYPE" speedFactor="1.02" vaporized=""/>
    <tripinfo id="f23.1" depart="20.00" departLane="Ei_0" departPos="5.10" departSpeed="0.00" departDelay="14.00" arrival="39.00" arrivalLane="So_0" arrivalPos="38.65" arrivalSpeed="9.87" duration="19.00" routeLength="94.09" waitingTime="1.00" waitingCount="1" stopTime="0.00" timeLoss="11.28" rerouteNo="0" devices="tripinfo_f23.1 routing_f23.1" vType="DEFAULT_VEHTYPE" speedFactor="0.92" vaporized=""/>
    <tripinfo id="f14.1" depart="23.00" departLane="Wi_0" departPos="5.10" departSpeed="0.00" departDelay="13.00" arrival="39.00" arrivalLane="No_0" arrivalPos="38.65" arrivalSpeed="9.77" duration="16.00" routeLength="94.09" waitingTime="0.00" waitingCount="0" stopTime="0.00" timeLoss="8.28" rerouteNo="0" devices="tripinfo_f14.1 routing_f14.1" vType="DEFAULT_VEHTYPE" speedFactor="0.90" vaporized=""/>
    <tripinfo id="f31.1" depart="24.00" departLane="Si_0" departPos="5.10" departSpeed="0.00" departDelay="15.00" arrival="50.00" arrivalLane="Wo_0" arrivalPos="38.65" arrivalSpeed="10.26" duration="26.00" routeLength="94.09" waitingTime="10.00" waitingCount="1" stopTime="0.00" timeLoss="18.57" rerouteNo="0" devices="tripinfo_f31.1 routing_f31.1" vType="DEFAULT_VEHTYPE" speedFactor="0.97" vaporized=""/>
    <tripinfo id="f42.1" depart="25.00" departLane="Ni_0" departPos="5.10" departSpeed="0.00" departDelay="14.00" arrival="50.00" arrivalLane="Eo_0" arrivalPos="38.65" arrivalSpeed="10.47" duration="25.00" routeLength="94.09" waitingTime="8.00" waitingCount="1" stopTime="0.00" timeLoss="17.87" rerouteNo="0" devices="tripinfo_f42.1 routing_f42.1" vType="DEFAULT_VEHTYPE" speedFactor="1.04" vaporized=""/>
    <tripinfo id="f31.2" depart="32.00" departLane="Si_0" departPos="5.10" departSpeed="0.00" departDelay="17.00" arrival="52.00" arrivalLane="Wo_0" arrivalPos="38.65" arrivalSpeed="11.38" duration="20.00" routeLength="94.09" waitingTime="3.00" waitingCount="1" stopTime="0.00" timeLoss="13.03" rerouteNo="0" devices="tripinfo_f31.2 routing_f31.2" vType="DEFAULT_VEHTYPE" speedFactor="1.08" vaporized=""/>
    <tripinfo id="f42.2" depart="33.00" departLane="Ni_0" departPos="5.10" departSpeed="0.00" departDelay="19.00" arrival="53.00" arrivalLane="Eo_0" arrivalPos="38.65" arrivalSpeed="10.61" duration="20.00" routeLength="94.09" waitingTime="1.00" waitingCount="1" stopTime="0.00" timeLoss="12.60" rerouteNo="0" devices="tripinfo_f42.2 routing_f42.2" vType="DEFAULT_VEHTYPE" speedFactor="1.00" vaporized=""/>
    <tripinfo id="f31.3" depart="33.00" departLane="Si_0" departPos="5.10" departSpeed="0.00" departDelay="16.00" arrival="55.00" arrivalLane="Wo_0" arrivalPos="38.65" arrivalSpeed="11.21" duration="22.00" routeLength="94.09" waitingTime="2.00" waitingCount="1" stopTime="0.00" timeLoss="14.56" rerouteNo="0" devices="tripinfo_f31.3 routing_f31.3" vType="DEFAULT_VEHTYPE" speedFactor="1.04" vaporized=""/>
    <tripinfo id="f42.3" depart="38.00" departLane="Ni_0" departPos="5.10" departSpeed="0.00" departDelay="22.00" arrival="56.00" arrivalLane="Eo_0" arrivalPos="38.65" arrivalSpeed="9.47" duration="18.00" routeLength="94.09" waitingTime="0.00" waitingCount="0" stopTime="0.00" timeLoss="9.94" rerouteNo="0" devices="tripinfo_f42.3 routing_f42.3" vType="DEFAULT_VEHTYPE" speedFactor="0.88" vaporized=""/>
    <tripinfo id="f31.4" depart="40.00" departLane="Si_0" departPos="5.10" departSpeed="0.00" departDelay="18.00" arrival="57.00" arrivalLane="Wo_0" arrivalPos="38.65" arrivalSpeed="11.35" duration="17.00" routeLength="94.09" waitingTime="0.00" waitingCount="0" stopTime="0.00" timeLoss="9.55" rerouteNo="0" devices="tripinfo_f31.4 routing_f31.4" vType="DEFAULT_VEHTYPE" speedFactor="1.04" vaporized=""/>
    <tripinfo id="f13.1" depart="5.00" departLane="Wi_0" departPos="5.10" departSpeed="0.00" departDelay="2.00" arrival="62.00" arrivalLane="So_0" arrivalPos="38.65" arrivalSpeed="12.06" duration="57.00" routeLength="81.56" waitingTime="42.00" waitingCount="1" stopTime="0.00" timeLoss="51.16" rerouteNo="0" devices="tripinfo_f13.1 routing_f13.1" vType="DEFAULT_VEHTYPE" speedFactor="1.12" vaporized=""/>
    <tripinfo id="f12.1" depart="8.00" departLane="Wi_0" departPos="5.10" departSpeed="0.00" departDelay="4.00" arrival="64.00" arrivalLane="Eo_0" arrivalPos="38.65" arrivalSpeed="10.42" duration="56.00" routeLength="95.21" waitingTime="37.00" waitingCount="1" stopTime="0.00" timeLoss="48.04" rerouteNo="0" devices="tripinfo_f12.1 routing_f12.1" vType="DEFAULT_VEHTYPE" speedFactor="0.94" vaporized=""/>
    <tripinfo id="f21.1" depart="6.00" departLane="Ei_0" departPos="5.10" departSpeed="0.00" departDelay="5.00" arrival="65.00" arrivalLane="Wo_0" arrivalPos="38.65" arrivalSpeed="9.03" duration="59.00" routeLength="95.21" waitingTime="41.00" waitingCount="1" stopTime="0.00" timeLoss="50.49" rerouteNo="0" devices="tripinfo_f21.1 routing_f21.1" vType="DEFAULT_VEHTYPE" speedFactor="0.83" vaporized=""/>
    <tripinfo id="f21.2" depart="10.00" departLane="Ei_0" departPos="5.10" departSpeed="0.00" departDelay="8.00" arrival="65.00" arrivalLane="Wo_1" arrivalPos="38.65" arrivalSpeed="4.07" duration="55.00" routeLength="95.21" waitingTime="35.00" waitingCount="1" stopTime="0.00" timeLoss="46.72" rerouteNo="0" devices="tripinfo_f21.2 routing_f21.2" vType="DEFAULT_VEHTYPE" speedFactor="0.86" vaporized=""/>
    <tripinfo id="f12.2" depart="11.00" departLane="Wi_0" departPos="5.10" departSpeed="0.00" departDelay="6.00" arrival="65.00" arrivalLane="Eo_0" arrivalPos="38.65" arrivalSpeed="12.48" duration="54.00" routeLength="95.21" waitingTime="37.00" waitingCount="1" stopTime="0.00" timeLoss="48.06" rerouteNo="0" devices="tripinfo_f12.2 routing_f12.2" vType="DEFAULT_VEHTYPE" speedFactor="1.16" vaporized=""/>
    <tripinfo id="f13.2" depart="14.00" departLane="Wi_0" departPos="5.10" departSpeed="0.00" departDelay="9.00" arrival="66.00" arrivalLane="So_0" arrivalPos="38.65" arrivalSpeed="10.60" duration="52.00" routeLength="81.56" waitingTime="36.00" waitingCount="1" stopTime="0.00" timeLoss="45.66" rerouteNo="0" devices="tripinfo_f13.2 routing_f13.2" vType="DEFAULT_VEHTYPE" speedFactor="1.02" vaporized=""/>
    <tripinfo id="f21.3" depart="13.00" departLane="Ei_0" departPos="5.10" departSpeed="0.00" departDelay="10.00" arrival="67.00" arrivalLane="Wo_0" arrivalPos="38.65" arrivalSpeed="10.09" duration="54.00" routeLength="95.21" waitingTime="38.00" waitingCount="1" stopTime="0.00" timeLoss="46.75" rerouteNo="0" devices="tripinfo_f21.3 routing_f21.3" vType="DEFAULT_VEHTYPE" speedFactor="0.99" vaporized=""/>
    <tripinfo id="f12.3" depart="17.00" departLane="Wi_0" departPos="5.10" departSpeed="0.00" departDelay="11.00" arrival="67.00" arrivalLane="Eo_1" arrivalPos="38.65" arrivalSpeed="8.57" duration="50.00" routeLength="95.21" waitingTime="34.00" waitingCount="1" stopTime="0.00" timeLoss="41.01" rerouteNo="0" devices="tripinfo_f12.3 routing_f12.3" vType="DEFAULT_VEHTYPE" speedFactor="0.83" vaporized=""/>
    <tripinfo id="f21.5" depart="19.00" departLane="Ei_0" departPos="5.10" departSpeed="0.00" departDelay="13.00" arrival="67.00" arrivalLane="Wo_1" arrivalPos="38.65" arrivalSpeed="8.99" duration="48.00" routeLength="95.21" waitingTime="32.00" waitingCount="1" stopTime="0.00" timeLoss="39.29" rerouteNo="0" devices="tripinfo_f21.5 routing_f21.5" vType="DEFAULT_VEHTYPE" speedFactor="0.87" vaporized=""/>
    <tripinfo id="f21.6" depart="25.00" departLane="Ei_0" departPos="5.10" departSpeed="0.00" departDelay="17.00" arrival="68.00" arrivalLane="Wo_1" arrivalPos="38.65" arrivalSpeed="11.32" duration="43.00" routeLength="95.21" waitingTime="25.00" waitingCount="1" stopTime="0.00" timeLoss="37.03" rerouteNo="0" devices="tripinfo_f21.6 routing_f21.6" vType="DEFAULT_VEHTYPE" speedFactor="1.17" vaporized=""/>
    <tripinfo id="f21.4" depart="16.00" departLane="Ei_0" departPos="5.10" departSpeed="0.00" departDelay="11.00" arrival="69.00" arrivalLane="Wo_0" arrivalPos="38.65" arrivalSpeed="11.15" duration="53.00" routeLength="95.21" waitingTime="34.00" waitingCount="1" stopTime="0.00" timeLoss="45.66" rerouteNo="0" devices="tripinfo_f21.4 routing_f21.4" vType="DEFAULT_VEHTYPE" speedFactor="1.01" vaporized=""/>
    <tripinfo id="f24.1" depart="22.00" departLane="Ei_0" departPos="5.10" departSpeed="0.00" departDelay="16.00" arrival="69.00" arrivalLane="No_0" arrivalPos="38.65" arrivalSpeed="10.40" duration="47.00" routeLength="81.56" waitingTime="30.00" waitingCount="1" stopTime="0.00" timeLoss="40.29" rerouteNo="0" devices="tripinfo_f24.1 routing_f24.1" vType="DEFAULT_VEHTYPE" speedFactor="0.95" vaporized=""/>
    <tripinfo id="f12.4" depart="20.00" departLane="Wi_0" departPos="5.10" departSpeed="0.00" departDelay="10.00" arrival="69.00" arrivalLane="Eo_1" arrivalPos="38.65" arrivalSpeed="11.09" duration="49.00" routeLength="95.21" waitingTime="31.00" waitingCount="1" stopTime="0.00" timeLoss="41.89" rerouteNo="0" devices="tripinfo_f12.4 routing_f12.4" vType="DEFAULT_VEHTYPE" speedFactor="1.10" vaporized=""/>
    <tripinfo id="f12.5" depart="24.00" departLane="Wi_0" departPos="5.10" departSpeed="0.00" departDelay="13.00" arrival="69.00" arrivalLane="Eo_0" arrivalPos="38.65" arrivalSpeed="9.89" duration="45.00" routeLength="95.21" waitingTime="29.00" waitingCount="1" stopTime="0.00" timeLoss="37.86" rerouteNo="0" devices="tripinfo_f12.5 routing_f12.5" vType="DEFAULT_VEHTYPE" speedFactor="0.96" vaporized=""/>
    <tripinfo id="f12.6" depart="27.00" departLane="Wi_0" departPos="5.10" departSpeed="0.00" departDelay="14.00" arrival="70.00" arrivalLane="Eo_1" arrivalPos="38.65" arrivalSpeed="10.75" duration="43.00" routeLength="95.21" waitingTime="26.00" waitingCount="1" stopTime="0.00" timeLoss="36.01" rerouteNo="0" devices="tripinfo_f12.6 routing_f12.6" vType="DEFAULT_VEHTYPE" speedFactor="1.00" vaporized=""/>
    <tripinfo id="f12.7" depart="28.00" departLane="Wi_0" departPos="5.10" departSpeed="0.00" departDelay="14.00" arrival="72.00" arrivalLane="Eo_0" arrivalPos="38.65" arrivalSpeed="8.97" duration="44.00" routeLength="95.21" waitingTime="28.00" waitingCount="1" stopTime="0.00" timeLoss="35.73" rerouteNo="0" devices="tripinfo_f12.7 routing_f12.7" vType="DEFAULT_VEHTYPE" speedFactor="0.85" vaporized=""/>
    <tripinfo id="f32.3" depart="21.00" departLane="Si_0" departPos="5.10" departSpeed="0.00" departDelay="14.00" arrival="76.00" arrivalLane="Eo_0" arrivalPos="38.65" arrivalSpeed="12.06" duration="55.00" routeLength="81.56" waitingTime="41.00" waitingCount="1" stopTime="0.00" timeLoss="49.32" rerouteNo="0" devices="tripinfo_f32.3 routing_f32.3" vType="DEFAULT_VEHTYPE" speedFactor="1.18" vaporized=""/>
    <tripinfo id="f34.4" depart="25.00" departLane="Si_0" departPos="5.10" departSpeed="0.00" departDelay="15.00" arrival="77.00" arrivalLane="No_0" arrivalPos="38.65" arrivalSpeed="11.02" duration="52.00" routeLength="95.21" waitingTime="37.00" waitingCount="1" stopTime="0.00" timeLoss="45.27" rerouteNo="0" devices="tripinfo_f34.4 routing_f34.4" vType="DEFAULT_VEHTYPE" speedFactor="1.03" vaporized=""/>
    <tripinfo id="f34.5" depart="26.00" departLane="Si_0" departPos="5.10" departSpeed="0.00" departDelay="12.00" arrival="79.00" arrivalLane="No_0" arrivalPos="38.65" arrivalSpeed="11.03" duration="53.00" routeLength="95.21" waitingTime="38.00" waitingCount="1" stopTime="0.00" timeLoss="46.57" rerouteNo="0" devices="tripinfo_f34.5 routing_f34.5" vType="DEFAULT_VEHTYPE" speedFactor="1.10" vaporized=""/>
    <tripinfo id="f34.6" depart="29.00" departLane="Si_0" departPos="5.10" departSpeed="0.00" departDelay="14.00" arrival="79.00" arrivalLane="No_1" arrivalPos="38.65" arrivalSpeed="10.21" duration="50.00" routeLength="95.21" waitingTime="32.00" waitingCount="1" stopTime="0.00" timeLoss="42.91" rerouteNo="0" devices="tripinfo_f34.6 routing_f34.6" vType="DEFAULT_VEHTYPE" speedFactor="0.97" vaporized=""/>
    <tripinfo id="f34.8" depart="37.00" departLane="Si_0" departPos="5.10" departSpeed="0.00" departDelay="16.00" arrival="81.00" arrivalLane="No_1" arrivalPos="38.65" arrivalSpeed="9.93" duration="44.00" routeLength="95.21" waitingTime="28.00" waitingCount="1" stopTime="0.00" timeLoss="36.91" rerouteNo="0" devices="tripinfo_f34.8 routing_f34.8" vType="DEFAULT_VEHTYPE" speedFactor="0.97" vaporized=""/>
    <tripinfo id="f34.7" depart="34.00" departLane="Si_0" departPos="5.10" departSpeed="0.00" departDelay="15.00" arrival="82.00" arrivalLane="No_0" arrivalPos="38.65" arrivalSpeed="9.41" duration="48.00" routeLength="95.21" waitingTime="31.00" waitingCount="1" stopTime="0.00" timeLoss="40.30" rerouteNo="0" devices="tripinfo_f34.7 routing_f34.7" vType="DEFAULT_VEHTYPE" speedFactor="0.96" vaporized=""/>
    <tripinfo id="f34.9" depart="41.00" departLane="Si_0" departPos="5.10" departSpeed="0.00" departDelay="18.00" arrival="84.00" arrivalLane="No_0" arrivalPos="38.65" arrivalSpeed="11.04" duration="43.00" routeLength="95.21" waitingTime="27.00" waitingCount="1" stopTime="0.00" timeLoss="35.53" rerouteNo="0" devices="tripinfo_f34.9 routing_f34.9" vType="DEFAULT_VEHTYPE" speedFactor="1.02" vaporized=""/>
    <tripinfo id="f32.4" depart="44.00" departLane="Si_0" departPos="5.10" departSpeed="0.00" departDelay="21.00" arrival="85.00" arrivalLane="Eo_0" arrivalPos="38.65" arrivalSpeed="8.82" duration="41.00" routeLength="81.56" waitingTime="27.00" waitingCount="1" stopTime="0.00" timeLoss="33.90" rerouteNo="0" devices="tripinfo_f32.4 routing_f32.4" vType="DEFAULT_VEHTYPE" speedFactor="0.89" vaporized=""/>
    <tripinfo id="f24.2" depart="26.00" departLane="Ei_0" departPos="5.10" departSpeed="0.00" departDelay="15.00" arrival="91.00" arrivalLane="No_0" arrivalPos="38.65" arrivalSpeed="11.04" duration="65.00" routeLength="81.56" waitingTime="46.00" waitingCount="2" stopTime="0.00" timeLoss="58.69" rerouteNo="0" devices="tripinfo_f24.2 routing_f24.2" vType="DEFAULT_VEHTYPE" speedFactor="1.09" vaporized=""/>
    <tripinfo id="f23.2" depart="62.00" departLane="Ei_0" departPos="5.10" departSpeed="0.00" departDelay="50.00" arrival="92.00" arrivalLane="So_0" arrivalPos="38.65" arrivalSpeed="11.49" duration="30.00" routeLength="94.09" waitingTime="13.00" waitingCount="1" stopTime="0.00" timeLoss="22.92" rerouteNo="0" devices="tripinfo_f23.2 routing_f23.2" vType="DEFAULT_VEHTYPE" speedFactor="1.04" vaporized=""/>
    <tripinfo id="f21.7" depart="63.00" departLane="Ei_0" departPos="5.10" departSpeed="0.00" departDelay="50.00" arrival="92.00" arrivalLane="Wo_1" arrivalPos="38.65" arrivalSpeed="9.34" duration="29.00" routeLength="95.21" waitingTime="10.00" waitingCount="1" stopTime="0.00" timeLoss="21.06" rerouteNo="0" devices="tripinfo_f21.7 routing_f21.7" vType="DEFAULT_VEHTYPE" speedFactor="0.90" vaporized=""/>
    <tripinfo id="f23.3" depart="66.00" departLane="Ei_0" departPos="5.10" departSpeed="0.00" departDelay="53.00" arrival="94.00" arrivalLane="So_0" arrivalPos="38.65" arrivalSpeed="9.56" duration="28.00" routeLength="94.09" waitingTime="11.00" waitingCount="1" stopTime="0.00" timeLoss="20.13" rerouteNo="0" devices="tripinfo_f23.3 routing_f23.3" vType="DEFAULT_VEHTYPE" speedFactor="0.88" vaporized=""/>
    <tripinfo id="f21.8" depart="67.00" departLane="Ei_0" departPos="5.10" departSpeed="0.00" departDelay="53.00" arrival="94.00" arrivalLane="Wo_0" arrivalPos="38.65" arrivalSpeed="12.81" duration="27.00" routeLength="95.21" waitingTime="10.00" waitingCount="1" stopTime="0.00" timeLoss="20.21" rerouteNo="0" devices="tripinfo_f21.8 routing_f21.8" vType="DEFAULT_VEHTYPE" speedFactor="1.17" vaporized=""/>
    <tripinfo id="f21.9" depart="71.00" departLane="Ei_0" departPos="5.10" departSpeed="0.00" departDelay="56.00" arrival="94.00" arrivalLane="Wo_1" arrivalPos="38.65" arrivalSpeed="11.73" duration="23.00" routeLength="95.21" waitingTime="6.00" waitingCount="1" stopTime="0.00" timeLoss="16.27" rerouteNo="0" devices="tripinfo_f21.9 routing_f21.9" vType="DEFAULT_VEHTYPE" speedFactor="1.14" vaporized=""/>
    <tripinfo id="f23.4" depart="70.00" departLane="Ei_0" departPos="5.10" departSpeed="0.00" departDelay="56.00" arrival="97.00" arrivalLane="So_0" arrivalPos="38.65" arrivalSpeed="10.35" duration="27.00" routeLength="94.09" waitingTime="10.00" waitingCount="1" stopTime="0.00" timeLoss="19.83" rerouteNo="0" devices="tripinfo_f23.4 routing_f23.4" vType="DEFAULT_VEHTYPE" speedFactor="1.02" vaporized=""/>
    <tripinfo id="f21.10" depart="75.00" departLane="Ei_0" departPos="5.10" departSpeed="0.00" departDelay="58.00" arrival="97.00" arrivalLane="Wo_0" arrivalPos="38.65" arrivalSpeed="10.03" duration="22.00" routeLength="95.21" waitingTime="2.00" waitingCount="1" stopTime="0.00" timeLoss="13.60" rerouteNo="0" devices="tripinfo_f21.10 routing_f21.10" vType="DEFAULT_VEHTYPE" speedFactor="0.91" vaporized=""/>
    <tripinfo id="f24.3" depart="78.00" departLane="Ei_0" departPos="5.10" departSpeed="0.00" departDelay="61.00" arrival="97.00" arrivalLane="No_0" arrivalPos="38.65" arrivalSpeed="9.01" duration="19.00" routeLength="81.56" waitingTime="2.00" waitingCount="1" stopTime="0.00" timeLoss="12.24" rerouteNo="0" devices="tripinfo_f24.3 routing_f24.3" vType="DEFAULT_VEHTYPE" speedFactor="0.91" vaporized=""/>
    <tripinfo id="f23.5" depart="72.00" departLane="Ei_0" departPos="5.10" departSpeed="0.00" departDelay="57.00" arrival="99.00" arrivalLane="So_0" arrivalPos="38.65" arrivalSpeed="10.86" duration="27.00" routeLength="94.09" waitingTime="5.00" waitingCount="1" stopTime="0.00" timeLoss="19.97" rerouteNo="0" devices="tripinfo_f23.5 routing_f23.5" vType="DEFAULT_VEHTYPE" speedFactor="1.02" vaporized=""/>
    <tripinfo id="f21.11" depart="81.00" departLane="Ei_0" departPos="5.10" departSpeed="0.00" departDelay="63.00" arrival="99.00" arrivalLane="Wo_1" arrivalPos="38.65" arrivalSpeed="10.50" duration="18.00" routeLength="95.21" waitingTime="0.00" waitingCount="0" stopTime="0.00" timeLoss="11.05" rerouteNo="0" devices="tripinfo_f21.11 routing_f21.11" vType="DEFAULT_VEHTYPE" speedFactor="1.02" vaporized=""/>
    <tripinfo id="f32.5" depart="76.00" departLane="Si_0" departPos="5.10" departSpeed="0.00" departDelay="51.00" arrival="105.00" arrivalLane="Eo_0" arrivalPos="38.65" arrivalSpeed="10.23" duration="29.00" routeLength="81.56" waitingTime="12.00" waitingCount="1" stopTime="0.00" timeLoss="21.85" rerouteNo="0" devices="tripinfo_f32.5 routing_f32.5" vType="DEFAULT_VEHTYPE" speedFactor="0.92" vaporized=""/>
    <tripinfo id="f34.10" depart="79.00" departLane="Si_0" departPos="5.10" departSpeed="0.00" departDelay="53.00" arrival="105.00" arrivalLane="No_1" arrivalPos="38.65" arrivalSpeed="12.15" duration="26.00" routeLength="95.21" waitingTime="8.00" waitingCount="1" stopTime="0.00" timeLoss="19.77" rerouteNo="0" devices="tripinfo_f34.10 routing_f34.10" vType="DEFAULT_VEHTYPE" speedFactor="1.12" vaporized=""/>
    <tripinfo id="f43.3" depart="19.00" departLane="Ni_0" departPos="5.10" departSpeed="0.00" departDelay="11.00" arrival="106.00" arrivalLane="So_0" arrivalPos="38.65" arrivalSpeed="10.40" duration="87.00" routeLength="95.21" waitingTime="69.00" waitingCount="1" stopTime="0.00" timeLoss="79.40" rerouteNo="0" devices="tripinfo_f43.3 routing_f43.3" vType="DEFAULT_VEHTYPE" speedFactor="0.99" vaporized=""/>
    <tripinfo id="f43.4" depart="22.00" departLane="Ni_0" departPos="5.10" departSpeed="0.00" departDelay="13.00" arrival="106.00" arrivalLane="So_1" arrivalPos="38.65" arrivalSpeed="12.49" duration="84.00" routeLength="95.21" waitingTime="65.00" waitingCount="1" stopTime="0.00" timeLoss="77.35" rerouteNo="0" devices="tripinfo_f43.4 routing_f43.4" vType="DEFAULT_VEHTYPE" speedFactor="1.18" vaporized=""/>
    <tripinfo id="f34.11" depart="83.00" departLane="Si_0" departPos="5.10" departSpeed="0.00" departDelay="55.00" arrival="107.00" arrivalLane="No_1" arrivalPos="38.65" arrivalSpeed="11.70" duration="24.00" routeLength="95.21" waitingTime="7.00" waitingCount="1" stopTime="0.00" timeLoss="17.44" rerouteNo="0" devices="tripinfo_f34.11 routing_f34.11" vType="DEFAULT_VEHTYPE" speedFactor="1.07" vaporized=""/>
    <tripinfo id="f43.5" depart="26.00" departLane="Ni_0" departPos="5.10" departSpeed="0.00" departDelay="14.00" arrival="108.00" arrivalLane="So_1" arrivalPos="38.65" arrivalSpeed="9.83" duration="82.00" routeLength="95.21" waitingTime="65.00" waitingCount="1" stopTime="0.00" timeLoss="75.28" rerouteNo="0" devices="tripinfo_f43.5 routing_f43.5" vType="DEFAULT_VEHTYPE" speedFactor="1.09" vaporized=""/>