<?xml version="1.0" encoding="UTF-8"?>

<!-- generated on Fri 22 Nov 2019 04:47:56 PM PST by SUMO gui Version 0.25.0
<?xml version="1.0" encoding="UTF-8"?>

<configuration xmlns:xsi="http://www.w3.org/2001/XMLSchema-instance" xsi:noNamespaceSchemaLocation="http://sumo.dlr.de/xsd/sumo-gui.exeConfiguration.xsd">

    <input>
        <net-file value="cross.net.xml"/>
        <route-files value="cross.rou.xml"/>
        <additional-files value="cross.det.xml,cross.add.xml"/>
    </input>

    <time>
        <begin value="0"/>
    </time>

    <report>
        <verbose value="true"/>
        <no-step-log value="true"/>
    </report>

</configuration>
-->

<detector xmlns:xsi="http://www.w3.org/2001/XMLSchema-instance" xsi:noNamespaceSchemaLocation="http://sumo.dlr.de/xsd/det_e1_file.xsd">
   <interval begin="0.00" end="30.00" id="W1_el" nVehContrib="6" flow="720.00" occupancy="22.29" speed="4.83" length="5.00" nVehEntered="6"/>
   <interval begin="0.00" end="30.00" id="W2_el" nVehContrib="1" flow="120.00" occupancy="3.17" speed="5.25" length="5.00" nVehEntered="2"/>
   <interval begin="0.00" end="30.00" id="W3_el" nVehContrib="0" flow="0.00" occupancy="0.00" speed="-1.00" length="-1.00" nVehEntered="0"/>
   <interval begin="0.00" end="30.00" id="E1_el" nVehContrib="5" flow="600.00" occupancy="22.22" speed="4.64" length="5.00" nVehEntered="6"/>
   <interval begin="0.00" end="30.00" id="E2_el" nVehContrib="2" flow="240.00" occupancy="16.29" speed="3.39" length="5.00" nVehEntered="2"/>
   <interval begin="0.00" end="30.00" id="E3_el" nVehContrib="0" flow="0.00" occupancy="0.00" speed="-1.00" length="-1.00" nVehEntered="0"/>
   <interval begin="0.00" end="30.00" id="S1_el" nVehContrib="8" flow="960.00" occupancy="25.36" speed="5.28" length="5.00" nVehEntered="8"/>
   <interval begin="0.00" end="30.00" id="S2_el" nVehContrib="0" flow="0.00" occupancy="0.00" speed="-1.00" length="-1.00" nVehEntered="1"/>
   <interval begin="0.00" end="30.00" id="S3_el" nVehContrib="1" flow="120.00" occupancy="3.17" speed="5.26" length="5.00" nVehEntered="1"/>
   <interval begin="0.00" end="30.00" id="N1_el" nVehContrib="9" flow="1080.00" occupancy="27.54" speed="5.46" length="5.00" nVehEntered="9"/>
   <interval begin="0.00" end="30.00" id="N2_el" nVehContrib="0" flow="0.00" occupancy="0.00" speed="-1.00" length="-1.00" nVehEntered="2"/>
   <interval begin="0.00" end="30.00" id="N3_el" nVehContrib="0" flow="0.00" occupancy="0.00" speed="-1.00" length="-1.00" nVehEntered="0"/>
   <interval begin="30.00" end="60.00" id="W1_el" nVehContrib="6" flow="720.00" occupancy="19.54" speed="5.31" length="5.00" nVehEntered="6"/>
   <interval begin="30.00" end="60.00" id="W2_el" nVehContrib="0" flow="0.00" occupancy="0.00" speed="-1.00" length="-1.00" nVehEntered="0"/>
   <interval begin="30.00" end="60.00" id="W3_el" nVehContrib="0" flow="0.00" occupancy="0.00" speed="-1.00" length="-1.00" nVehEntered="0"/>
   <interval begin="30.00" end="60.00" id="E1_el" nVehContrib="6" flow="720.00" occupancy="21.42" speed="5.13" length="5.00" nVehEntered="6"/>
   <interval begin="30.00" end="60.00" id="E2_el" nVehContrib="0" flow="0.00" occupancy="0.00" speed="-1.00" length="-1.00" nVehEntered="0"/>
   <interval begin="30.00" end="60.00" id="E3_el" nVehContrib="0" flow="0.00" occupancy="0.00" speed="-1.00" length="-1.00" nVehEntered="0"/>
   <interval begin="30.00" end="60.00" id="S1_el" nVehContrib="6" flow="720.00" occupancy="22.84" speed="4.87" length="5.00" nVehEntered="6"/>
   <interval begin="30.00" end="60.00" id="S2_el" nVehContrib="0" flow="0.00" occupancy="0.00" speed="-1.00" length="-1.00" nVehEntered="1"/>
   <interval begin="30.00" end="60.00" id="S3_el" nVehContrib="1" flow="120.00" occupancy="8.25" speed="2.02" length="5.00" nVehEntered="1"/>
   <interval begin="30.00" end="60.00" id="N1_el" nVehContrib="5" flow="600.00" occupancy="20.83" speed="4.58" length="5.00" nVehEntered="6"/>
   <interval begin="30.00" end="60.00" id="N2_el" nVehContrib="0" flow="0.00" occupancy="0.00" speed="-1.00" length="-1.00" nVehEntered="2"/>
   <interval begin="30.00" end="60.00" id="N3_el" nVehContrib="0" flow="0.00" occupancy="0.00" speed="-1.00" length="-1.00" nVehEntered="0"/>
   <interval begin="60.00" end="90.00" id="W1_el" nVehContrib="7" flow="840.00" occupancy="26.01" speed="4.91" length="5.00" nVehEntered="8"/>
   <interval begin="60.00" end="90.00" id="W2_el" nVehContrib="1" flow="120.00" occupancy="4.66" speed="3.57" length="5.00" nVehEntered="2"/>
   <interval begin="60.00" end="90.00" id="W3_el" nVehContrib="1" flow="120.00" occupancy="3.40" speed="4.91" length="5.00" nVehEntered="1"/>
   <interval begin="60.00" end="90.00" id="E1_el" nVehContrib="7" flow="840.00" occupancy="25.06" speed="4.81" length="5.00" nVehEntered="9"/>
   <interval begin="60.00" end="90.00" id="E2_el" nVehContrib="0" flow="0.00" occupancy="0.00" speed="-1.00" length="-1.00" nVehEntered="2"/>
   <interval begin="60.00" end="90.00" id="E3_el" nVehContrib="1" flow="120.00" occupancy="3.57" speed="4.67" length="5.00" nVehEntered="1"/>
   <interval begin="60.00" end="90.00" id="S1_el" nVehContrib="0" flow="0.00" occupancy="0.00" speed="-1.00" length="-1.00" nVehEntered="0"/>
   <interval begin="60.00" end="90.00" id="S2_el" nVehContrib="0" flow="0.00" occupancy="0.00" speed="-1.00" length="-1.00" nVehEntered="0"/>
   <interval begin="60.00" end="90.00" id="S3_el" nVehContrib="0" flow="0.00" occupancy="0.00" speed="-1.00" length="-1.00" nVehEntered="0"/>
   <interval begin="60.00" end="90.00" id="N1_el" nVehContrib="0" flow="0.00" occupancy="0.00" speed="-1.00" length="-1.00" nVehEntered="0"/>
   <interval begin="60.00" end="90.00" id="N2_el" nVehContrib="0" flow="0.00" occupancy="0.00" speed="-1.00" length="-1.00" nVehEntered="0"/>
   <interval begin="60.00" end="90.00" id="N3_el" nVehContrib="0" flow="0.00" occupancy="0.00" speed="-1.00" length="-1.00" nVehEntered="0"/>
   <interval begin="90.00" end="120.00" id="W1_el" nVehContrib="0" flow="0.00" occupancy="0.00" speed="-1.00" length="-1.00" nVehEntered="0"/>
   <interval begin="90.00" end="120.00" id="W2_el" nVehContrib="0" flow="0.00" occupancy="0.00" speed="-1.00" length="-1.00" nVehEntered="0"/>
   <interval begin="90.00" end="120.00" id="W3_el" nVehContrib="1" flow="120.00" occupancy="6.65" speed="2.50" length="5.00" nVehEntered="1"/>
   <interval begin="90.00" end="120.00" id="E1_el" nVehContrib="0" flow="0.00" occupancy="0.00" speed="-1.00" length="-1.00" nVehEntered="0"/>
   <interval begin="90.00" end="120.00" id="E2_el" nVehContrib="1" flow="120.00" occupancy="7.42" speed="2.25" length="5.00" nVehEntered="1"/>
   <interval begin="90.00" end="120.00" id="E3_el" nVehContrib="0" flow="0.00" occupancy="0.00" speed="-1.00" length="-1.00" nVehEntered="0"/>
   <interval begin="90.00" end="120.00" id="S1_el" nVehContrib="0" flow="0.00" occupancy="0.00" speed="-1.00" length="-1.00" nVehEntered="0"/>
   <interval begin="90.00" end="120.00" id="S2_el" nVehContrib="0" flow="0.00" occupancy="0.00" speed="-1.00" length="-1.00" nVehEntered="0"/>
   <interval begin="90.00" end="120.00" id="S3_el" nVehContrib="0" flow="0.00" occupancy="0.00" speed="-1.00" length="-1.00" nVehEntered="0"/>
   <interval begin="90.00" end="120.00" id="N1_el" nVehContrib="0" flow="0.00" occupancy="0.00" speed="-1.00" length="-1.00" nVehEntered="0"/>
   <interval begin="90.00" end="120.00" id="N2_el" nVehContrib="0" flow="0.00" occupancy="0.00" speed="-1.00" length="-1.00" nVehEntered="0"/>
   <interval begin="90.00" end="120.00" id="N3_el" nVehContrib="0" flow="0.00" occupancy="0.00" speed="-1.00" length="-1.00" nVehEntered="0"/>
   <interval begin="120.00" end="150.00" id="W1_el" nVehContrib="0" flow="0.00" occupancy="1.51" speed="-1.00" length="-1.00" nVehEntered="0"/>
   <interval begin="120.00" end="150.00" id="W2_el" nVehContrib="0" flow="0.00" occupancy="0.00" speed="-1.00" length="-1.00" nVehEntered="0"/>
   <interval begin="120.00" end="150.00" id="W3_el" nVehContrib="0" flow="0.00" occupancy="0.00" speed="-1.00" length="-1.00" nVehEntered="0"/>
   <interval begin="120.00" end="150.00" id="E1_el" nVehContrib="0" flow="0.00" occupancy="0.00" speed="-1.00" length="-1.00" nVehEntered="0"/>
   <interval begin="120.00" end="150.00" id="E2_el" nVehContrib="0" flow="0.00" occupancy="0.00" speed="-1.00" length="-1.00" nVehEntered="0"/>
   <interval begin="120.00" end="150.00" id="E3_el" nVehContrib="0" flow="0.00" occupancy="0.00" speed="-1.00" length="-1.00" nVehEntered="0"/>
   <interval begin="120.00" end="150.00" id="S1_el" nVehContrib="0" flow="0.00" occupancy="0.00" speed="-1.00" length="-1.00" nVehEntered="0"/>
   <interval begin="120.00" end="150.00" id="S2_el" nVehContrib="0" flow="0.00" occupancy="0.00" speed="-1.00" length="-1.00" nVehEntered="0"/>
   <interval begin="120.00" end="150.00" id="S3_el" nVehContrib="0" flow="0.00" occupancy="0.00" speed="-1.00" length="-1.00" nVehEntered="0"/>
   <interval begin="120.00" end="150.00" id="N1_el" nVehContrib="0" flow="0.00" occupancy="0.00" speed="-1.00" length="-1.00" nVehEntered="0"/>
   <interval begin="120.00" end="150.00" id="N2_el" nVehContrib="0" flow="0.00" occupancy="0.00" speed="-1.00" length="-1.00" nVehEntered="0"/>
   <interval begin="120.00" end="150.00" id="N3_el" nVehContrib="0" flow="0.00" occupancy="0.00" speed="-1.00" length="-1.00" nVehEntered="0"/>
   <interval begin="150.00" end="180.00" id="W1_el" nVehContrib="10" flow="1200.00" occupancy="29.91" speed="5.34" length="5.00" nVehEntered="10"/>
   <interval begin="150.00" end="180.00" id="W2_el" nVehContrib="0" flow="0.00" occupancy="0.00" speed="-1.00" length="-1.00" nVehEntered="1"/>
   <interval begin="150.00" end="180.00" id="W3_el" nVehContrib="0" flow="0.00" occupancy="0.00" speed="-1.00" length="-1.00" nVehEntered="0"/>
   <interval begin="150.00" end="180.00" id="E1_el" nVehContrib="0" flow="0.00" occupancy="0.00" speed="-1.00" length="-1.00" nVehEntered="0"/>
   <interval begin="150.00" end="180.00" id="E2_el" nVehContrib="0" flow="0.00" occupancy="0.00" speed="-1.00" length="-1.00" nVehEntered="0"/>
   <interval begin="150.00" end="180.00" id="E3_el" nVehContrib="0" flow="0.00" occupancy="0.00" speed="-1.00" length="-1.00" nVehEntered="0"/>
   <interval begin="150.00" end="180.00" id="S1_el" nVehContrib="0" flow="0.00" occupancy="0.00" speed="-1.00" length="-1.00" nVehEntered="0"/>
   <interval begin="150.00" end="180.00" id="S2_el" nVehContrib="0" flow="0.00" occupancy="0.00" speed="-1.00" length="-1.00" nVehEntered="0"/>
   <interval begin="150.00" end="180.00" id="S3_el" nVehContrib="0" flow="0.00" occupancy="0.00" speed="-1.00" length="-1.00" nVehEntered="0"/>
   <interval begin="150.00" end="180.00" id="N1_el" nVehContrib="0" flow="0.00" occupancy="0.00" speed="-1.00" length="-1.00" nVehEntered="0"/>
   <interval begin="150.00" end="180.00" id="N2_el" nVehContrib="0" flow="0.00" occupancy="0.00" speed="-1.00" length="-1.00" nVehEntered="0"/>
   <interval begin="150.00" end="180.00" id="N3_el" nVehContrib="0" flow="0.00" occupancy="0.00" speed="-1.00" length="-1.00" nVehEntered="0"/>
   <interval begin="180.00" end="210.00" id="W1_el" nVehContrib="4" flow="480.00" occupancy="15.45" speed="4.78" length="5.00" nVehEntered="5"/>
   <interval begin="180.00" end="210.00" id="W2_el" nVehContrib="1" flow="120.00" occupancy="7.98" speed="2.09" length="5.00" nVehEntered="3"/>
   <interval begin="180.00" end="210.00" id="W3_el" nVehContrib="0" flow="0.00" occupancy="0.00" speed="-1.00" length="-1.00" nVehEntered="0"/>
   <interval begin="180.00" end="210.00" id="E1_el" nVehContrib="7" flow="840.00" occupancy="23.18" speed="5.09" length="5.00" nVehEntered="7"/>
   <interval begin="180.00" end="210.00" id="E2_el" nVehContrib="0" flow="0.00" occupancy="0.00" speed="-1.00" length="-1.00" nVehEntered="3"/>
   <interval begin="180.00" end="210.00" id="E3_el" nVehContrib="1" flow="120.00" occupancy="4.29" speed="3.89" length="5.00" nVehEntered="1"/>
   <interval begin="180.00" end="210.00" id="S1_el" nVehContrib="0" flow="0.00" occupancy="0.00" speed="-1.00" length="-1.00" nVehEntered="0"/>
   <interval begin="180.00" end="210.00" id="S2_el" nVehContrib="0" flow="0.00" occupancy="0.00" speed="-1.00" length="-1.00" nVehEntered="0"/>
   <interval begin="180.00" end="210.00" id="S3_el" nVehContrib="0" flow="0.00" occupancy="0.00" speed="-1.00" length="-1.00" nVehEntered="0"/>
   <interval begin="180.00" end="210.00" id="N1_el" nVehContrib="0" flow="0.00" occupancy="0.00" speed="-1.00" length="-1.00" nVehEntered="0"/>
   <interval begin="180.00" end="210.00" id="N2_el" nVehContrib="0" flow="0.00" occupancy="0.00" speed="-1.00" length="-1.00" nVehEntered="0"/>
   <interval begin="180.00" end="210.00" id="N3_el" nVehContrib="0" flow="0.00" occupancy="0.00" speed="-1.00" length="-1.00" nVehEntered="0"/>
   <interval begin="210.00" end="240.00" id="W1_el" nVehContrib="0" flow="0.00" occupancy="0.00" speed="-1.00" length="-1.00" nVehEntered="0"/>
   <interval begin="210.00" end="240.00" id="W2_el" nVehContrib="0" flow="0.00" occupancy="0.00" speed="-1.00" length="-1.00" nVehEntered="0"/>
   <interval begin="210.00" end="240.00" id="W3_el" nVehContrib="0" flow="0.00" occupancy="0.00" speed="-1.00" length="-1.00" nVehEntered="0"/>
   <interval begin="210.00" end="240.00" id="E1_el" nVehContrib="5" flow="600.00" occupancy="21.17" speed="4.61" length="5.00" nVehEntered="6"/>
   <interval begin="210.00" end="240.00" id="E2_el" nVehContrib="2" flow="240.00" occupancy="13.01" speed="3.70" length="5.00" nVehEntered="4"/>
   <interval begin="210.00" end="240.00" id="E3_el" nVehContrib="0" flow="0.00" occupancy="0.00" speed="-1.00" length="-1.00" nVehEntered="0"/>
   <interval begin="210.00" end="240.00" id="S1_el" nVehContrib="6" flow="720.00" occupancy="19.72" speed="5.30" length="5.00" nVehEntered="6"/>
   <interval begin="210.00" end="240.00" id="S2_el" nVehContrib="0" flow="0.00" occupancy="0.00" speed="-1.00" length="-1.00" nVehEntered="1"/>
   <interval begin="210.00" end="240.00" id="S3_el" nVehContrib="0" flow="0.00" occupancy="0.00" speed="-1.00" length="-1.00" nVehEntered="0"/>
   <interval begin="210.00" end="240.00" id="N1_el" nVehContrib="0" flow="0.00" occupancy="0.00" speed="-1.00" length="-1.00" nVehEntered="0"/>
   <interval begin="210.00" end="240.00" id="N2_el" nVehContrib="0" flow="0.00" occupancy="0.00" speed="-1.00" length="-1.00" nVehEntered="0"/>
   <interval begin="210.00" end="240.00" id="N3_el" nVehContrib="0" flow="0.00" occupancy="0.00" speed="-1.00" length="-1.00" nVehEntered="0"/>
   <interval begin="240.00" end="270.00" id="W1_el" nVehContrib="0" flow="0.00" occupancy="0.00" speed="-1.00" length="-1.00" nVehEntered="0"/>
   <interval begin="240.00" end="270.00" id="W2_el" nVehContrib="0" flow="0.00" occupancy="0.00" speed="-1.00" length="-1.00" nVehEntered="0"/>
   <interval begin="240.00" end="270.00" id="W3_el" nVehContrib="0" flow="0.00" occupancy="0.00" speed="-1.00" length="-1.00" nVehEntered="0"/>
   <interval begin="240.00" end="270.00" id="E1_el" nVehContrib="0" flow="0.00" occupancy="0.00" speed="-1.00" length="-1.00" nVehEntered="0"/>
   <interval begin="240.00" end="270.00" id="E2_el" nVehContrib="0" flow="0.00" occupancy="0.00" speed="-1.00" length="-1.00" nVehEntered="0"/>
   <interval begin="240.00" end="270.00" id="E3_el" nVehContrib="0" flow="0.00" occupancy="0.00" speed="-1.00" length="-1.00" nVehEntered="0"/>
   <interval begin="240.00" end="270.00" id="S1_el" nVehContrib="7" flow="840.00" occupancy="24.85" speed="4.93" length="5.00" nVehEntered="7"/>
   <interval begin="240.00" end="270.00" id="S2_el" nVehContrib="2" flow="240.00" occupancy="12.81" speed="3.67" length="5.00" nVehEntered="3"/>
   <interval begin="240.00" end="270.00" id="S3_el" nVehContrib="0" flow="0.00" occupancy="0.00" speed="-1.00" length="-1.00" nVehEntered="0"/>
   <interval begin="240.00" end="270.00" id="N1_el" nVehContrib="4" flow="480.00" occupancy="13.63" speed="5.02" length="5.00" nVehEntered="4"/>
   <interval begin="240.00" end="270.00" id="N2_el" nVehContrib="0" flow="0.00" occupancy="0.00" speed="-1.00" length="-1.00" nVehEntered="1"/>
   <interval begin="240.00" end="270.00" id="N3_el" nVehContrib="0" flow="0.00" occupancy="0.00" speed="-1.00" length="-1.00" nVehEntered="0"/>
   <interval begin="270.00" end="300.00" id="W1_el" nVehContrib="2" flow="240.00" occupancy="7.50" speed="4.51" length="5.00" nVehEntered="2"/>
   <interval begin="270.00" end="300.00" id="W2_el" nVehContrib="0" flow="0.00" occupancy="0.00" speed="-1.00" length="-1.00" nVehEntered="0"/>
   <interval begin="270.00" end="300.00" id="W3_el" nVehContrib="0" flow="0.00" occupancy="0.00" speed="-1.00" length="-1.00" nVehEntered="0"/>
   <interval begin="270.00" end="300.00" id="E1_el" nVehContrib="2" flow="240.00" occupancy="7.65" speed="4.55" length="5.00" nVehEntered="2"/>
   <interval begin="270.00" end="300.00" id="E2_el" nVehContrib="0" flow="0.00" occupancy="0.00" speed="-1.00" length="-1.00" nVehEntered="0"/>
   <interval begin="270.00" end="300.00" id="E3_el" nVehContrib="0" flow="0.00" occupancy="0.00" speed="-1.00" length="-1.00" nVehEntered="0"/>
   <interval begin="270.00" end="300.00" id="S1_el" nVehContrib="0" flow="0.00" occupancy="0.00" speed="-1.00" length="-1.00" nVehEntered="0"/>
   <interval begin="270.00" end="300.00" id="S2_el" nVehContrib="0" flow="0.00" occupancy="0.00" speed="-1.00" length="-1.00" nVehEntered="0"/>
   <interval begin="270.00" end="300.00" id="S3_el" nVehContrib="0" flow="0.00" occupancy="0.00" speed="-1.00" length="-1.00" nVehEntered="0"/>
   <interval begin="270.00" end="300.00" id="N1_el" nVehContrib="7" flow="840.00" occupancy="22.71" speed="5.31" length="5.00" nVehEntered="8"/>
   <interval begin="270.00" end="300.00" id="N2_el" nVehContrib="0" flow="0.00" occupancy="0.00" speed="-1.00" length="-1.00" nVehEntered="5"/>
   <interval begin="270.00" end="300.00" id="N3_el" nVehContrib="0" flow="0.00" occupancy="0.00" speed="-1.00" length="-1.00" nVehEntered="0"/>
   <interval begin="300.00" end="330.00" id="W1_el" nVehContrib="8" flow="960.00" occupancy="25.05" speed="5.48" length="5.00" nVehEntered="9"/>
   <interval begin="300.00" end="330.00" id="W2_el" nVehContrib="1" flow="120.00" occupancy="3.07" speed="5.42" length="5.00" nVehEntered="3"/>
   <interval begin="300.00" end="330.00" id="W3_el" nVehContrib="0" flow="0.00" occupancy="0.00" speed="-1.00" length="-1.00" nVehEntered="0"/>
   <interval begin="300.00" end="330.00" id="E1_el" nVehContrib="10" flow="1200.00" occupancy="31.21" speed="5.35" length="5.00" nVehEntered="10"/>
   <interval begin="300.00" end="330.00" id="E2_el" nVehContrib="0" flow="0.00" occupancy="0.00" speed="-1.00" length="-1.00" nVehEntered="1"/>
   <interval begin="300.00" end="330.00" id="E3_el" nVehContrib="0" flow="0.00" occupancy="0.00" speed="-1.00" length="-1.00" nVehEntered="0"/>
   <interval begin="300.00" end="330.00" id="S1_el" nVehContrib="0" flow="0.00" occupancy="1.96" speed="-1.00" length="-1.00" nVehEntered="0"/>
   <interval begin="300.00" end="330.00" id="S2_el" nVehContrib="0" flow="0.00" occupancy="0.00" speed="-1.00" length="-1.00" nVehEntered="0"/>
   <interval begin="300.00" end="330.00" id="S3_el" nVehContrib="0" flow="0.00" occupancy="0.00" speed="-1.00" length="-1.00" nVehEntered="0"/>
   <interval begin="300.00" end="330.00" id="N1_el" nVehContrib="1" flow="120.00" occupancy="4.56" speed="3.42" length="5.00" nVehEntered="1"/>
   <interval begin="300.00" end="330.00" id="N2_el" nVehContrib="1" flow="120.00" occupancy="6.30" speed="2.65" length="5.00" nVehEntered="1"/>
   <interval begin="300.00" end="330.00" id="N3_el" nVehContrib="0" flow="0.00" occupancy="0.00" speed="-1.00" length="-1.00" nVehEntered="0"/>
   <interval begin="330.00" end="360.00" id="W1_el" nVehContrib="2" flow="240.00" occupancy="9.98" speed="3.64" length="5.00" nVehEntered="3"/>
   <interval begin="330.00" end="360.00" id="W2_el" nVehContrib="0" flow="0.00" occupancy="0.00" speed="-1.00" length="-1.00" nVehEntered="0"/>
   <interval begin="330.00" end="360.00" id="W3_el" nVehContrib="1" flow="120.00" occupancy="7.59" speed="2.19" length="5.00" nVehEntered="1"/>
   <interval begin="330.00" end="360.00" id="E1_el" nVehContrib="1" flow="120.00" occupancy="7.04" speed="2.37" length="5.00" nVehEntered="2"/>
   <interval begin="330.00" end="360.00" id="E2_el" nVehContrib="1" flow="120.00" occupancy="9.97" speed="1.67" length="5.00" nVehEntered="2"/>
   <interval begin="330.00" end="360.00" id="E3_el" nVehContrib="0" flow="0.00" occupancy="0.00" speed="-1.00" length="-1.00" nVehEntered="0"/>
   <interval begin="330.00" end="360.00" id="S1_el" nVehContrib="10" flow="1200.00" occupancy="31.61" speed="5.09" length="5.00" nVehEntered="10"/>
   <interval begin="330.00" end="360.00" id="S2_el" nVehContrib="0" flow="0.00" occupancy="0.74" speed="-1.00" length="-1.00" nVehEntered="1"/>
   <interval begin="330.00" end="360.00" id="S3_el" nVehContrib="0" flow="0.00" occupancy="0.00" speed="-1.00" length="-1.00" nVehEntered="0"/>
   <interval begin="330.00" end="360.00" id="N1_el" nVehContrib="9" flow="1080.00" occupancy="30.66" speed="4.97" length="5.00" nVehEntered="9"/>
   <interval begin="330.00" end="360.00" id="N2_el" nVehContrib="0" flow="0.00" occupancy="0.00" speed="-1.00" length="-1.00" nVehEntered="2"/>
   <interval begin="330.00" end="360.00" id="N3_el" nVehContrib="1" flow="120.00" occupancy="3.19" speed="5.22" length="5.00" nVehEntered="1"/>
   <interval begin="360.00" end="390.00" id="W1_el" nVehContrib="0" flow="0.00" occupancy="0.00" speed="-1.00" length="-1.00" nVehEntered="0"/>
   <interval begin="360.00" end="390.00" id="W2_el" nVehContrib="0" flow="0.00" occupancy="0.00" speed="-1.00" length="-1.00" nVehEntered="0"/>
   <interval begin="360.00" end="390.00" id="W3_el" nVehContrib="0" flow="0.00" occupancy="0.00" speed="-1.00" length="-1.00" nVehEntered="0"/>
   <interval begin="360.00" end="390.00" id="E1_el" nVehContrib="0" flow="0.00" occupancy="0.00" speed="-1.00" length="-1.00" nVehEntered="0"/>
   <interval begin="360.00" end="390.00" id="E2_el" nVehContrib="0" flow="0.00" occupancy="0.00" speed="-1.00" length="-1.00" nVehEntered="0"/>
   <interval begin="360.00" end="390.00" id="E3_el" nVehContrib="0" flow="0.00" occupancy="0.00" speed="-1.00" length="-1.00" nVehEntered="0"/>
   <interval begin="360.00" end="390.00" id="S1_el" nVehContrib="9" flow="1080.00" occupancy="28.89" speed="5.39" length="5.00" nVehEntered="9"/>
   <interval begin="360.00" end="390.00" id="S2_el" nVehContrib="0" flow="0.00" occupancy="0.00" speed="-1.00" length="-1.00" nVehEntered="3"/>
   <interval begin="360.00" end="390.00" id="S3_el" nVehContrib="0" flow="0.00" occupancy="0.00" speed="-1.00" length="-1.00" nVehEntered="0"/>
   <interval begin="360.00" end="390.00" id="N1_el" nVehContrib="10" flow="1200.00" occupancy="30.95" speed="5.39" length="5.00" nVehEntered="10"/>
   <interval begin="360.00" end="390.00" id="N2_el" nVehContrib="0" flow="0.00" occupancy="0.00" speed="-1.00" length="-1.00" nVehEntered="0"/>
   <interval begin="360.00" end="390.00" id="N3_el" nVehContrib="0" flow="0.00" occupancy="0.00" speed="-1.00" length="-1.00" nVehEntered="0"/>
   <interval begin="390.00" end="420.00" id="W1_el" nVehContrib="6" flow="720.00" occupancy="20.24" speed="4.99" length="5.00" nVehEntered="6"/>
   <interval begin="390.00" end="420.00" id="W2_el" nVehContrib="0" flow="0.00" occupancy="0.00" speed="-1.00" length="-1.00" nVehEntered="0"/>
   <interval begin="390.00" end="420.00" id="W3_el" nVehContrib="0" flow="0.00" occupancy="0.00" speed="-1.00" length="-1.00" nVehEntered="0"/>
   <interval begin="390.00" end="420.00" id="E1_el" nVehContrib="6" flow="720.00" occupancy="20.80" speed="4.92" length="5.00" nVehEntered="6"/>
   <interval begin="390.00" end="420.00" id="E2_el" nVehContrib="1" flow="120.00" occupancy="2.80" speed="5.95" length="5.00" nVehEntered="2"/>
   <interval begin="390.00" end="420.00" id="E3_el" nVehContrib="0" flow="0.00" occupancy="0.00" speed="-1.00" length="-1.00" nVehEntered="0"/>
   <interval begin="390.00" end="420.00" id="S1_el" nVehContrib="5" flow="600.00" occupancy="20.88" speed="4.80" length="5.00" nVehEntered="6"/>
   <interval begin="390.00" end="420.00" id="S2_el" nVehContrib="2" flow="240.00" occupancy="6.34" speed="5.26" length="5.00" nVehEntered="2"/>
   <interval begin="390.00" end="420.00" id="S3_el" nVehContrib="0" flow="0.00" occupancy="0.00" speed="-1.00" length="-1.00" nVehEntered="0"/>
   <interval begin="390.00" end="420.00" id="N1_el" nVehContrib="5" flow="600.00" occupancy="23.84" speed="4.72" length="5.00" nVehEntered="7"/>
   <interval begin="390.00" end="420.00" id="N2_el" nVehContrib="1" flow="120.00" occupancy="5.77" speed="2.89" length="5.00" nVehEntered="1"/>
   <interval begin="390.00" end="420.00" id="N3_el" nVehContrib="0" flow="0.00" occupancy="0.00" speed="-1.00" length="-1.00" nVehEntered="0"/>
   <interval begin="420.00" end="450.00" id="W1_el" nVehContrib="5" flow="600.00" occupancy="22.30" speed="4.41" length="5.00" nVehEntered="5"/>
   <interval begin="420.00" end="450.00" id="W2_el" nVehContrib="2" flow="240.00" occupancy="7.45" speed="4.72" length="5.00" nVehEntered="2"/>
   <interval begin="420.00" end="450.00" id="W3_el" nVehContrib="0" flow="0.00" occupancy="0.00" speed="-1.00" length="-1.00" nVehEntered="0"/>
   <interval begin="420.00" end="450.00" id="E1_el" nVehContrib="5" flow="600.00" occupancy="20.55" speed="4.60" length="5.00" nVehEntered="6"/>
   <interval begin="420.00" end="450.00" id="E2_el" nVehContrib="2" flow="240.00" occupancy="8.03" speed="4.33" length="5.00" nVehEntered="3"/>
   <interval begin="420.00" end="450.00" id="E3_el" nVehContrib="0" flow="0.00" occupancy="0.00" speed="-1.00" length="-1.00" nVehEntered="0"/>
   <interval begin="420.00" end="450.00" id="S1_el" nVehContrib="0" flow="0.00" occupancy="0.00" speed="-1.00" length="-1.00" nVehEntered="0"/>
   <interval begin="420.00" end="450.00" id="S2_el" nVehContrib="2" flow="240.00" occupancy="18.02" speed="2.00" length="5.00" nVehEntered="2"/>
   <interval begin="420.00" end="450.00" id="S3_el" nVehContrib="0" flow="0.00" occupancy="0.00" speed="-1.00" length="-1.00" nVehEntered="0"/>
   <interval begin="420.00" end="450.00" id="N1_el" nVehContrib="0" flow="0.00" occupancy="0.00" speed="-1.00" length="-1.00" nVehEntered="0"/>
   <interval begin="420.00" end="450.00" id="N2_el" nVehContrib="0" flow="0.00" occupancy="0.00" speed="-1.00" length="-1.00" nVehEntered="0"/>
   <interval begin="420.00" end="450.00" id="N3_el" nVehContrib="1" flow="120.00" occupancy="9.56" speed="1.74" length="5.00" nVehEntered="1"/>
   <interval begin="450.00" end="480.00" id="W1_el" nVehContrib="0" flow="0.00" occupancy="0.00" speed="-1.00" length="-1.00" nVehEntered="0"/>
   <interval begin="450.00" end="480.00" id="W2_el" nVehContrib="1" flow="120.00" occupancy="12.97" speed="1.28" length="5.00" nVehEntered="1"/>
   <interval begin="450.00" end="480.00" id="W3_el" nVehContrib="0" flow="0.00" occupancy="0.00" speed="-1.00" length="-1.00" nVehEntered="0"/>
   <interval begin="450.00" end="480.00" id="E1_el" nVehContrib="0" flow="0.00" occupancy="0.00" speed="-1.00" length="-1.00" nVehEntered="0"/>
   <interval begin="450.00" end="480.00" id="E2_el" nVehContrib="1" flow="120.00" occupancy="8.30" speed="2.01" length="5.00" nVehEntered="1"/>
   <interval begin="450.00" end="480.00" id="E3_el" nVehContrib="0" flow="0.00" occupancy="0.00" speed="-1.00" length="-1.00" nVehEntered="0"/>
   <interval begin="450.00" end="480.00" id="S1_el" nVehContrib="0" flow="0.00" occupancy="0.00" speed="-1.00" length="-1.00" nVehEntered="0"/>
   <interval begin="450.00" end="480.00" id="S2_el" nVehContrib="0" flow="0.00" occupancy="0.00" speed="-1.00" length="-1.00" nVehEntered="0"/>
   <interval begin="450.00" end="480.00" id="S3_el" nVehContrib="0" flow="0.00" occupancy="0.00" speed="-1.00" length="-1.00" nVehEntered="0"/>
   <interval begin="450.00" end="480.00" id="N1_el" nVehContrib="0" flow="0.00" occupancy="0.00" speed="-1.00" length="-1.00" nVehEntered="0"/>
   <interval begin="450.00" end="480.00" id="N2_el" nVehContrib="0" flow="0.00" occupancy="0.00" speed="-1.00" length="-1.00" nVehEntered="0"/>
   <interval begin="450.00" end="480.00" id="N3_el" nVehContrib="0" flow="0.00" occupancy="0.00" speed="-1.00" length="-1.00" nVehEntered="0"/>
   <interval begin="480.00" end="510.00" id="W1_el" nVehContrib="0" flow="0.00" occupancy="0.44" speed="-1.00" length="-1.00" nVehEntered="0"/>
   <interval begin="480.00" end="510.00" id="W2_el" nVehContrib="1" flow="120.00" occupancy="8.26" speed="2.02" length="5.00" nVehEntered="1"/>
   <interval begin="480.00" end="510.00" id="W3_el" nVehContrib="1" flow="120.00" occupancy="3.60" speed="4.63" length="5.00" nVehEntered="1"/>
   <interval begin="480.00" end="510.00" id="E1_el" nVehContrib="0" flow="0.00" occupancy="0.00" speed="-1.00" length="-1.00" nVehEntered="0"/>
   <interval begin="480.00" end="510.00" id="E2_el" nVehContrib="1" flow="120.00" occupancy="10.37" speed="1.61" length="5.00" nVehEntered="1"/>
   <interval begin="480.00" end="510.00" id="E3_el" nVehContrib="1" flow="120.00" occupancy="4.17" speed="4.00" length="5.00" nVehEntered="1"/>
   <interval begin="480.00" end="510.00" id="S1_el" nVehContrib="0" flow="0.00" occupancy="0.00" speed="-1.00" length="-1.00" nVehEntered="0"/>
   <interval begin="480.00" end="510.00" id="S2_el" nVehContrib="0" flow="0.00" occupancy="0.00" speed="-1.00" length="-1.00" nVehEntered="0"/>
   <interval begin="480.00" end="510.00" id="S3_el" nVehContrib="0" flow="0.00" occupancy="0.00" speed="-1.00" length="-1.00" nVehEntered="0"/>
   <interval begin="480.00" end="510.00" id="N1_el" nVehContrib="0" flow="0.00" occupancy="0.00" speed="-1.00" length="-1.00" nVehEntered="0"/>
   <interval begin="480.00" end="510.00" id="N2_el" nVehContrib="0" flow="0.00" occupancy="0.00" speed="-1.00" length="-1.00" nVehEntered="0"/>