<?xml version="1.0" encoding="UTF-8"?>

<!-- generated on Sat 23 Nov 2019 02:12:52 AM PST by Eclipse SUMO GUI Version v1_3_1+0752-841bf6b
<configuration xmlns:xsi="http://www.w3.org/2001/XMLSchema-instance" xsi:noNamespaceSchemaLocation="http://sumo.dlr.de/xsd/sumoConfiguration.xsd">

    <input>
        <net-file value="data/cross.net.xml"/>
        <route-files value="data/cross.rou.xml"/>
        <additional-files value="data/cross.det.xml,data/cross.add.xml"/>
    </input>

    <output>
        <tripinfo-output value="tripinfo.xml"/>
    </output>

    <time>
        <begin value="0"/>
    </time>

    <report>
        <verbose value="true"/>
        <no-step-log value="true"/>
    </report>

    <traci_server>
        <remote-port value="34979"/>
    </traci_server>

</configuration>
-->

<detector xmlns:xsi="http://www.w3.org/2001/XMLSchema-instance" xsi:noNamespaceSchemaLocation="http://sumo.dlr.de/xsd/det_e1_file.xsd">
    <interval begin="0.00" end="30.00" id="W1_el" nVehContrib="7" flow="840.00" occupancy="24.61" speed="5.60" harmonicMeanSpeed="5.59" length="5.00" nVehEntered="8"/>
    <interval begin="0.00" end="30.00" id="W2_el" nVehContrib="2" flow="240.00" occupancy="6.48" speed="5.16" harmonicMeanSpeed="5.14" length="5.00" nVehEntered="4"/>
    <interval begin="0.00" end="30.00" id="W3_el" nVehContrib="2" flow="240.00" occupancy="8.76" speed="4.01" harmonicMeanSpeed="3.80" length="5.00" nVehEntered="2"/>
    <interval begin="0.00" end="30.00" id="E1_el" nVehContrib="8" flow="960.00" occupancy="26.15" speed="5.31" harmonicMeanSpeed="5.30" length="5.00" nVehEntered="9"/>
    <interval begin="0.00" end="30.00" id="E2_el" nVehContrib="1" flow="120.00" occupancy="2.84" speed="5.87" harmonicMeanSpeed="5.87" length="5.00" nVehEntered="3"/>
    <interval begin="0.00" end="30.00" id="E3_el" nVehContrib="2" flow="240.00" occupancy="12.65" speed="2.63" harmonicMeanSpeed="2.63" length="5.00" nVehEntered="2"/>
    <interval begin="0.00" end="30.00" id="S1_el" nVehContrib="5" flow="600.00" occupancy="20.37" speed="4.97" harmonicMeanSpeed="4.09" length="5.00" nVehEntered="6"/>
    <interval begin="0.00" end="30.00" id="S2_el" nVehContrib="2" flow="240.00" occupancy="8.56" speed="4.19" harmonicMeanSpeed="3.89" length="5.00" nVehEntered="2"/>
    <interval begin="0.00" end="30.00" id="S3_el" nVehContrib="1" flow="120.00" occupancy="3.12" speed="5.34" harmonicMeanSpeed="5.34" length="5.00" nVehEntered="1"/>
    <interval begin="0.00" end="30.00" id="N1_el" nVehContrib="5" flow="600.00" occupancy="21.25" speed="4.37" harmonicMeanSpeed="3.92" length="5.00" nVehEntered="7"/>
    <interval begin="0.00" end="30.00" id="N2_el" nVehContrib="5" flow="600.00" occupancy="26.17" speed="3.76" harmonicMeanSpeed="3.18" length="5.00" nVehEntered="5"/>
    <interval begin="0.00" end="30.00" id="N3_el" nVehContrib="1" flow="120.00" occupancy="3.59" speed="4.64" harmonicMeanSpeed="4.64" length="5.00" nVehEntered="1"/>
    <interval begin="30.00" end="60.00" id="W1_el" nVehContrib="2" flow="240.00" occupancy="10.26" speed="2.41" harmonicMeanSpeed="2.38" length="5.00" nVehEntered="1"/>
    <interval begin="30.00" end="60.00" id="W2_el" nVehContrib="2" flow="240.00" occupancy="10.37" speed="3.50" harmonicMeanSpeed="3.22" length="5.00" nVehEntered="3"/>
    <interval begin="30.00" end="60.00" id="W3_el" nVehContrib="2" flow="240.00" occupancy="11.16" speed="3.19" harmonicMeanSpeed="2.99" length="5.00" nVehEntered="2"/>
    <interval begin="30.00" end="60.00" id="E1_el" nVehContrib="1" flow="120.00" occupancy="6.51" speed="2.22" harmonicMeanSpeed="2.22" length="5.00" nVehEntered="0"/>
    <interval begin="30.00" end="60.00" id="E2_el" nVehContrib="2" flow="240.00" occupancy="7.49" speed="4.55" harmonicMeanSpeed="4.45" length="5.00" nVehEntered="2"/>
    <interval begin="30.00" end="60.00" id="E3_el" nVehContrib="3" flow="360.00" occupancy="10.74" speed="4.68" harmonicMeanSpeed="4.65" length="5.00" nVehEntered="3"/>
    <interval begin="30.00" end="60.00" id="S1_el" nVehContrib="0" flow="0.00" occupancy="0.00" speed="-1.00" harmonicMeanSpeed="-1.00" length="-1.00" nVehEntered="0"/>
    <interval begin="30.00" end="60.00" id="S2_el" nVehContrib="0" flow="0.00" occupancy="0.00" speed="-1.00" harmonicMeanSpeed="-1.00" length="-1.00" nVehEntered="0"/>
    <interval begin="30.00" end="60.00" id="S3_el" nVehContrib="0" flow="0.00" occupancy="0.00" speed="-1.00" harmonicMeanSpeed="-1.00" length="-1.00" nVehEntered="0"/>
    <interval begin="30.00" end="60.00" id="N1_el" nVehContrib="4" flow="480.00" occupancy="15.25" speed="4.78" harmonicMeanSpeed="4.37" length="5.00" nVehEntered="4"/>
    <interval begin="30.00" end="60.00" id="N2_el" nVehContrib="2" flow="240.00" occupancy="5.96" speed="5.60" harmonicMeanSpeed="5.60" length="5.00" nVehEntered="4"/>
    <interval begin="30.00" end="60.00" id="N3_el" nVehContrib="2" flow="240.00" occupancy="11.36" speed="2.95" harmonicMeanSpeed="2.93" length="5.00" nVehEntered="2"/>
    <interval begin="60.00" end="90.00" id="W1_el" nVehContrib="6" flow="720.00" occupancy="35.81" speed="4.16" harmonicMeanSpeed="3.41" length="5.00" nVehEntered="7"/>
    <interval begin="60.00" end="90.00" id="W2_el" nVehContrib="2" flow="240.00" occupancy="6.53" speed="5.11" harmonicMeanSpeed="5.10" length="5.00" nVehEntered="3"/>
    <interval begin="60.00" end="90.00" id="W3_el" nVehContrib="3" flow="360.00" occupancy="13.90" speed="4.13" harmonicMeanSpeed="3.60" length="5.00" nVehEntered="3"/>
    <interval begin="60.00" end="90.00" id="E1_el" nVehContrib="1" flow="120.00" occupancy="6.31" speed="3.44" harmonicMeanSpeed="3.44" length="5.00" nVehEntered="2"/>
    <interval begin="60.00" end="90.00" id="E2_el" nVehContrib="1" flow="120.00" occupancy="3.05" speed="5.47" harmonicMeanSpeed="5.47" length="5.00" nVehEntered="2"/>
    <interval begin="60.00" end="90.00" id="E3_el" nVehContrib="1" flow="120.00" occupancy="5.24" speed="3.18" harmonicMeanSpeed="3.18" length="5.00" nVehEntered="1"/>
    <interval begin="60.00" end="90.00" id="S1_el" nVehContrib="0" flow="0.00" occupancy="0.00" speed="-1.00" harmonicMeanSpeed="-1.00" length="-1.00" nVehEntered="0"/>
    <interval begin="60.00" end="90.00" id="S2_el" nVehContrib="0" flow="0.00" occupancy="0.00" speed="-1.00" harmonicMeanSpeed="-1.00" length="-1.00" nVehEntered="0"/>
    <interval begin="60.00" end="90.00" id="S3_el" nVehContrib="0" flow="0.00" occupancy="0.00" speed="-1.00" harmonicMeanSpeed="-1.00" length="-1.00" nVehEntered="0"/>
    <interval begin="60.00" end="90.00" id="N1_el" nVehContrib="0" flow="0.00" occupancy="0.00" speed="-1.00" harmonicMeanSpeed="-1.00" length="-1.00" nVehEntered="0"/>
    <interval begin="60.00" end="90.00" id="N2_el" nVehContrib="0" flow="0.00" occupancy="0.00" speed="-1.00" harmonicMeanSpeed="-1.00" length="-1.00" nVehEntered="0"/>
    <interval begin="60.00" end="90.00" id="N3_el" nVehContrib="0" flow="0.00" occupancy="0.00" speed="-1.00" harmonicMeanSpeed="-1.00" length="-1.00" nVehEntered="0"/>
    <interval begin="90.00" end="120.00" id="W1_el" nVehContrib="3" flow="360.00" occupancy="9.39" speed="3.88" harmonicMeanSpeed="3.32" length="5.00" nVehEntered="3"/>
    <interval begin="90.00" end="120.00" id="W2_el" nVehContrib="2" flow="240.00" occupancy="6.35" speed="5.25" harmonicMeanSpeed="5.25" length="5.00" nVehEntered="2"/>
    <interval begin="90.00" end="120.00" id="W3_el" nVehContrib="1" flow="120.00" occupancy="3.49" speed="4.77" harmonicMeanSpeed="4.77" length="5.00" nVehEntered="1"/>
    <interval begin="90.00" end="120.00" id="E1_el" nVehContrib="5" flow="600.00" occupancy="25.65" speed="3.64" harmonicMeanSpeed="3.07" length="5.00" nVehEntered="5"/>
    <interval begin="90.00" end="120.00" id="E2_el" nVehContrib="5" flow="600.00" occupancy="20.75" speed="4.29" harmonicMeanSpeed="4.02" length="5.00" nVehEntered="7"/>
    <interval begin="90.00" end="120.00" id="E3_el" nVehContrib="3" flow="360.00" occupancy="12.80" speed="4.11" harmonicMeanSpeed="3.90" length="5.00" nVehEntered="3"/>
    <interval begin="90.00" end="120.00" id="S1_el" nVehContrib="0" flow="0.00" occupancy="0.00" speed="-1.00" harmonicMeanSpeed="-1.00" length="-1.00" nVehEntered="0"/>
    <interval begin="90.00" end="120.00" id="S2_el" nVehContrib="0" flow="0.00" occupancy="0.00" speed="-1.00" harmonicMeanSpeed="-1.00" length="-1.00" nVehEntered="0"/>
    <interval begin="90.00" end="120.00" id="S3_el" nVehContrib="0" flow="0.00" occupancy="0.00" speed="-1.00" harmonicMeanSpeed="-1.00" length="-1.00" nVehEntered="0"/>
    <interval begin="90.00" end="120.00" id="N1_el" nVehContrib="0" flow="0.00" occupancy="0.00" speed="-1.00" harmonicMeanSpeed="-1.00" length="-1.00" nVehEntered="0"/>
    <interval begin="90.00" end="120.00" id="N2_el" nVehContrib="0" flow="0.00" occupancy="0.00" speed="-1.00" harmonicMeanSpeed="-1.00" length="-1.00" nVehEntered="0"/>
    <interval begin="90.00" end="120.00" id="N3_el" nVehContrib="0" flow="0.00" occupancy="0.00" speed="-1.00" harmonicMeanSpeed="-1.00" length="-1.00" nVehEntered="0"/>
    <interval begin="120.00" end="150.00" id="W1_el" nVehContrib="5" flow="600.00" occupancy="17.49" speed="4.94" harmonicMeanSpeed="4.77" length="5.00" nVehEntered="7"/>
    <interval begin="120.00" end="150.00" id="W2_el" nVehContrib="5" flow="600.00" occupancy="23.88" speed="4.12" harmonicMeanSpeed="3.49" length="5.00" nVehEntered="6"/>
    <interval begin="120.00" end="150.00" id="W3_el" nVehContrib="2" flow="240.00" occupancy="8.54" speed="4.24" harmonicMeanSpeed="3.90" length="5.00" nVehEntered="2"/>
    <interval begin="120.00" end="150.00" id="E1_el" nVehContrib="2" flow="240.00" occupancy="11.14" speed="3.01" harmonicMeanSpeed="2.99" length="5.00" nVehEntered="3"/>
    <interval begin="120.00" end="150.00" id="E2_el" nVehContrib="3" flow="360.00" occupancy="23.37" speed="2.44" harmonicMeanSpeed="2.14" length="5.00" nVehEntered="3"/>
    <interval begin="120.00" end="150.00" id="E3_el" nVehContrib="0" flow="0.00" occupancy="0.00" speed="-1.00" harmonicMeanSpeed="-1.00" length="-1.00" nVehEntered="0"/>
    <interval begin="120.00" end="150.00" id="S1_el" nVehContrib="0" flow="0.00" occupancy="0.00" speed="-1.00" harmonicMeanSpeed="-1.00" length="-1.00" nVehEntered="0"/>
    <interval begin="120.00" end="150.00" id="S2_el" nVehContrib="0" flow="0.00" occupancy="0.00" speed="-1.00" harmonicMeanSpeed="-1.00" length="-1.00" nVehEntered="0"/>
    <interval begin="120.00" end="150.00" id="S3_el" nVehContrib="0" flow="0.00" occupancy="0.00" speed="-1.00" harmonicMeanSpeed="-1.00" length="-1.00" nVehEntered="0"/>
    <interval begin="120.00" end="150.00" id="N1_el" nVehContrib="0" flow="0.00" occupancy="0.00" speed="-1.00" harmonicMeanSpeed="-1.00" length="-1.00" nVehEntered="0"/>
    <interval begin="120.00" end="150.00" id="N2_el" nVehContrib="0" flow="0.00" occupancy="0.00" speed="-1.00" harmonicMeanSpeed="-1.00" length="-1.00" nVehEntered="0"/>
    <interval begin="120.00" end="150.00" id="N3_el" nVehContrib="0" flow="0.00" occupancy="0.00" speed="-1.00" harmonicMeanSpeed="-1.00" length="-1.00" nVehEntered="0"/>
    <interval begin="150.00" end="180.00" id="W1_el" nVehContrib="6" flow="720.00" occupancy="24.91" speed="4.57" harmonicMeanSpeed="4.01" length="5.00" nVehEntered="7"/>
    <interval begin="150.00" end="180.00" id="W2_el" nVehContrib="1" flow="120.00" occupancy="5.64" speed="2.96" harmonicMeanSpeed="2.96" length="5.00" nVehEntered="4"/>
    <interval begin="150.00" end="180.00" id="W3_el" nVehContrib="3" flow="360.00" occupancy="14.88" speed="3.50" harmonicMeanSpeed="3.36" length="5.00" nVehEntered="3"/>
    <interval begin="150.00" end="180.00" id="E1_el" nVehContrib="9" flow="1080.00" occupancy="30.28" speed="5.16" harmonicMeanSpeed="4.95" length="5.00" nVehEntered="9"/>
    <interval begin="150.00" end="180.00" id="E2_el" nVehContrib="0" flow="0.00" occupancy="0.00" speed="-1.00" harmonicMeanSpeed="-1.00" length="-1.00" nVehEntered="2"/>
    <interval begin="150.00" end="180.00" id="E3_el" nVehContrib="2" flow="240.00" occupancy="11.86" speed="2.82" harmonicMeanSpeed="2.81" length="5.00" nVehEntered="2"/>
    <interval begin="150.00" end="180.00" id="S1_el" nVehContrib="0" flow="0.00" occupancy="0.00" speed="-1.00" harmonicMeanSpeed="-1.00" length="-1.00" nVehEntered="0"/>
    <interval begin="150.00" end="180.00" id="S2_el" nVehContrib="0" flow="0.00" occupancy="0.00" speed="-1.00" harmonicMeanSpeed="-1.00" length="-1.00" nVehEntered="0"/>
    <interval begin="150.00" end="180.00" id="S3_el" nVehContrib="0" flow="0.00" occupancy="0.00" speed="-1.00" harmonicMeanSpeed="-1.00" length="-1.00" nVehEntered="0"/>
    <interval begin="150.00" end="180.00" id="N1_el" nVehContrib="0" flow="0.00" occupancy="0.00" speed="-1.00" harmonicMeanSpeed="-1.00" length="-1.00" nVehEntered="0"/>
    <interval begin="150.00" end="180.00" id="N2_el" nVehContrib="0" flow="0.00" occupancy="0.00" speed="-1.00" harmonicMeanSpeed="-1.00" length="-1.00" nVehEntered="0"/>
    <interval begin="150.00" end="180.00" id="N3_el" nVehContrib="0" flow="0.00" occupancy="0.00" speed="-1.00" harmonicMeanSpeed="-1.00" length="-1.00" nVehEntered="0"/>
    <interval begin="180.00" end="210.00" id="W1_el" nVehContrib="0" flow="0.00" occupancy="0.00" speed="-1.00" harmonicMeanSpeed="-1.00" length="-1.00" nVehEntered="0"/>
    <interval begin="180.00" end="210.00" id="W2_el" nVehContrib="2" flow="240.00" occupancy="16.07" speed="2.98" harmonicMeanSpeed="2.07" length="5.00" nVehEntered="2"/>
    <interval begin="180.00" end="210.00" id="W3_el" nVehContrib="1" flow="120.00" occupancy="9.60" speed="1.74" harmonicMeanSpeed="1.74" length="5.00" nVehEntered="1"/>
    <interval begin="180.00" end="210.00" id="E1_el" nVehContrib="3" flow="360.00" occupancy="13.32" speed="4.34" harmonicMeanSpeed="3.75" length="5.00" nVehEntered="4"/>
    <interval begin="180.00" end="210.00" id="E2_el" nVehContrib="3" flow="360.00" occupancy="13.09" speed="4.10" harmonicMeanSpeed="3.82" length="5.00" nVehEntered="4"/>
    <interval begin="180.00" end="210.00" id="E3_el" nVehContrib="2" flow="240.00" occupancy="7.90" speed="4.46" harmonicMeanSpeed="4.22" length="5.00" nVehEntered="2"/>
    <interval begin="180.00" end="210.00" id="S1_el" nVehContrib="0" flow="0.00" occupancy="0.00" speed="-1.00" harmonicMeanSpeed="-1.00" length="-1.00" nVehEntered="0"/>
    <interval begin="180.00" end="210.00" id="S2_el" nVehContrib="0" flow="0.00" occupancy="0.00" speed="-1.00" harmonicMeanSpeed="-1.00" length="-1.00" nVehEntered="0"/>
    <interval begin="180.00" end="210.00" id="S3_el" nVehContrib="0" flow="0.00" occupancy="0.00" speed="-1.00" harmonicMeanSpeed="-1.00" length="-1.00" nVehEntered="0"/>
    <interval begin="180.00" end="210.00" id="N1_el" nVehContrib="0" flow="0.00" occupancy="0.00" speed="-1.00" harmonicMeanSpeed="-1.00" length="-1.00" nVehEntered="0"/>
    <interval begin="180.00" end="210.00" id="N2_el" nVehContrib="0" flow="0.00" occupancy="0.00" speed="-1.00" harmonicMeanSpeed="-1.00" length="-1.00" nVehEntered="0"/>
    <interval begin="180.00" end="210.00" id="N3_el" nVehContrib="0" flow="0.00" occupancy="0.00" speed="-1.00" harmonicMeanSpeed="-1.00" length="-1.00" nVehEntered="0"/>
    <interval begin="210.00" end="240.00" id="W1_el" nVehContrib="2" flow="240.00" occupancy="12.51" speed="2.87" harmonicMeanSpeed="2.66" length="5.00" nVehEntered="2"/>
    <interval begin="210.00" end="240.00" id="W2_el" nVehContrib="2" flow="240.00" occupancy="9.93" speed="3.85" harmonicMeanSpeed="3.36" length="5.00" nVehEntered="2"/>
    <interval begin="210.00" end="240.00" id="W3_el" nVehContrib="1" flow="120.00" occupancy="3.10" speed="5.38" harmonicMeanSpeed="5.38" length="5.00" nVehEntered="1"/>
    <interval begin="210.00" end="240.00" id="E1_el" nVehContrib="0" flow="0.00" occupancy="0.00" speed="-1.00" harmonicMeanSpeed="-1.00" length="-1.00" nVehEntered="0"/>
    <interval begin="210.00" end="240.00" id="E2_el" nVehContrib="0" flow="0.00" occupancy="0.00" speed="-1.00" harmonicMeanSpeed="-1.00" length="-1.00" nVehEntered="0"/>
    <interval begin="210.00" end="240.00" id="E3_el" nVehContrib="0" flow="0.00" occupancy="0.00" speed="-1.00" harmonicMeanSpeed="-1.00" length="-1.00" nVehEntered="0"/>
    <interval begin="210.00" end="240.00" id="S1_el" nVehContrib="0" flow="0.00" occupancy="0.00" speed="-1.00" harmonicMeanSpeed="-1.00" length="-1.00" nVehEntered="0"/>
    <interval begin="210.00" end="240.00" id="S2_el" nVehContrib="0" flow="0.00" occupancy="0.00" speed="-1.00" harmonicMeanSpeed="-1.00" length="-1.00" nVehEntered="0"/>
    <interval begin="210.00" end="240.00" id="S3_el" nVehContrib="0" flow="0.00" occupancy="0.00" speed="-1.00" harmonicMeanSpeed="-1.00" length="-1.00" nVehEntered="0"/>
    <interval begin="210.00" end="240.00" id="N1_el" nVehContrib="0" flow="0.00" occupancy="0.00" speed="-1.00" harmonicMeanSpeed="-1.00" length="-1.00" nVehEntered="0"/>
    <interval begin="210.00" end="240.00" id="N2_el" nVehContrib="0" flow="0.00" occupancy="0.00" speed="-1.00" harmonicMeanSpeed="-1.00" length="-1.00" nVehEntered="0"/>
    <interval begin="210.00" end="240.00" id="N3_el" nVehContrib="0" flow="0.00" occupancy="0.00" speed="-1.00" harmonicMeanSpeed="-1.00" length="-1.00" nVehEntered="0"/>
    <interval begin="240.00" end="270.00" id="W1_el" nVehContrib="5" flow="600.00" occupancy="29.46" speed="3.70" harmonicMeanSpeed="3.16" length="5.00" nVehEntered="6"/>
    <interval begin="240.00" end="270.00" id="W2_el" nVehContrib="2" flow="240.00" occupancy="5.98" speed="5.61" harmonicMeanSpeed="5.58" length="5.00" nVehEntered="3"/>
    <interval begin="240.00" end="270.00" id="W3_el" nVehContrib="1" flow="120.00" occupancy="4.97" speed="3.35" harmonicMeanSpeed="3.35" length="5.00" nVehEntered="1"/>
    <interval begin="240.00" end="270.00" id="E1_el" nVehContrib="3" flow="360.00" occupancy="15.73" speed="3.49" harmonicMeanSpeed="3.41" length="5.00" nVehEntered="5"/>
    <interval begin="240.00" end="270.00" id="E2_el" nVehContrib="1" flow="120.00" occupancy="3.10" speed="5.38" harmonicMeanSpeed="5.38" length="5.00" nVehEntered="2"/>
    <interval begin="240.00" end="270.00" id="E3_el" nVehContrib="2" flow="240.00" occupancy="7.47" speed="4.97" harmonicMeanSpeed="4.97" length="5.00" nVehEntered="3"/>
    <interval begin="240.00" end="270.00" id="S1_el" nVehContrib="0" flow="0.00" occupancy="0.00" speed="-1.00" harmonicMeanSpeed="-1.00" length="-1.00" nVehEntered="0"/>
    <interval begin="240.00" end="270.00" id="S2_el" nVehContrib="0" flow="0.00" occupancy="0.00" speed="-1.00" harmonicMeanSpeed="-1.00" length="-1.00" nVehEntered="0"/>
    <interval begin="240.00" end="270.00" id="S3_el" nVehContrib="0" flow="0.00" occupancy="0.00" speed="-1.00" harmonicMeanSpeed="-1.00" length="-1.00" nVehEntered="0"/>
    <interval begin="240.00" end="270.00" id="N1_el" nVehContrib="0" flow="0.00" occupancy="0.00" speed="-1.00" harmonicMeanSpeed="-1.00" length="-1.00" nVehEntered="0"/>
    <interval begin="240.00" end="270.00" id="N2_el" nVehContrib="0" flow="0.00" occupancy="0.00" speed="-1.00" harmonicMeanSpeed="-1.00" length="-1.00" nVehEntered="0"/>
    <interval begin="240.00" end="270.00" id="N3_el" nVehContrib="0" flow="0.00" occupancy="0.00" speed="-1.00" harmonicMeanSpeed="-1.00" length="-1.00" nVehEntered="0"/>
    <interval begin="270.00" end="300.00" id="W1_el" nVehContrib="7" flow="840.00" occupancy="27.19" speed="4.63" harmonicMeanSpeed="3.85" length="5.00" nVehEntered="7"/>
    <interval begin="270.00" end="300.00" id="W2_el" nVehContrib="1" flow="120.00" occupancy="4.49" speed="3.71" harmonicMeanSpeed="3.71" length="5.00" nVehEntered="5"/>
    <interval begin="270.00" end="300.00" id="W3_el" nVehContrib="5" flow="600.00" occupancy="34.57" speed="2.73" harmonicMeanSpeed="2.41" length="5.00" nVehEntered="5"/>
    <interval begin="270.00" end="300.00" id="E1_el" nVehContrib="6" flow="720.00" occupancy="22.23" speed="4.93" harmonicMeanSpeed="4.29" length="5.00" nVehEntered="6"/>
    <interval begin="270.00" end="300.00" id="E2_el" nVehContrib="3" flow="360.00" occupancy="21.08" speed="3.09" harmonicMeanSpeed="2.37" length="5.00" nVehEntered="4"/>
    <interval begin="270.00" end="300.00" id="E3_el" nVehContrib="2" flow="240.00" occupancy="12.79" speed="3.51" harmonicMeanSpeed="2.46" length="5.00" nVehEntered="1"/>
    <interval begin="270.00" end="300.00" id="S1_el" nVehContrib="0" flow="0.00" occupancy="0.00" speed="-1.00" harmonicMeanSpeed="-1.00" length="-1.00" nVehEntered="0"/>
    <interval begin="270.00" end="300.00" id="S2_el" nVehContrib="0" flow="0.00" occupancy="0.00" speed="-1.00" harmonicMeanSpeed="-1.00" length="-1.00" nVehEntered="0"/>
    <interval begin="270.00" end="300.00" id="S3_el" nVehContrib="0" flow="0.00" occupancy="0.00" speed="-1.00" harmonicMeanSpeed="-1.00" length="-1.00" nVehEntered="0"/>
    <interval begin="270.00" end="300.00" id="N1_el" nVehContrib="0" flow="0.00" occupancy="0.00" speed="-1.00" harmonicMeanSpeed="-1.00" length="-1.00" nVehEntered="0"/>
    <interval begin="270.00" end="300.00" id="N2_el" nVehContrib="0" flow="0.00" occupancy="0.00" speed="-1.00" harmonicMeanSpeed="-1.00" length="-1.00" nVehEntered="0"/>
    <interval begin="270.00" end="300.00" id="N3_el" nVehContrib="0" flow="0.00" occupancy="0.00" speed="-1.00" harmonicMeanSpeed="-1.00" length="-1.00" nVehEntered="0"/>
    <interval begin="300.00" end="330.00" id="W1_el" nVehContrib="6" flow="720.00" occupancy="25.29" speed="4.62" harmonicMeanSpeed="3.95" length="5.00" nVehEntered="6"/>
    <interval begin="300.00" end="330.00" id="W2_el" nVehContrib="3" flow="360.00" occupancy="14.45" speed="4.29" harmonicMeanSpeed="3.46" length="5.00" nVehEntered="4"/>
    <interval begin="300.00" end="330.00" id="W3_el" nVehContrib="1" flow="120.00" occupancy="5.92" speed="2.82" harmonicMeanSpeed="2.82" length="5.00" nVehEntered="1"/>
    <interval begin="300.00" end="330.00" id="E1_el" nVehContrib="0" flow="0.00" occupancy="0.00" speed="-1.00" harmonicMeanSpeed="-1.00" length="-1.00" nVehEntered="0"/>
    <interval begin="300.00" end="330.00" id="E2_el" nVehContrib="0" flow="0.00" occupancy="0.00" speed="-1.00" harmonicMeanSpeed="-1.00" length="-1.00" nVehEntered="0"/>
    <interval begin="300.00" end="330.00" id="E3_el" nVehContrib="0" flow="0.00" occupancy="0.00" speed="-1.00" harmonicMeanSpeed="-1.00" length="-1.00" nVehEntered="0"/>
    <interval begin="300.00" end="330.00" id="S1_el" nVehContrib="1" flow="120.00" occupancy="19.97" speed="0.83" harmonicMeanSpeed="0.83" length="5.00" nVehEntered="1"/>
    <interval begin="300.00" end="330.00" id="S2_el" nVehContrib="2" flow="240.00" occupancy="12.15" speed="3.42" harmonicMeanSpeed="2.74" length="5.00" nVehEntered="2"/>
    <interval begin="300.00" end="330.00" id="S3_el" nVehContrib="1" flow="120.00" occupancy="2.92" speed="5.70" harmonicMeanSpeed="5.70" length="5.00" nVehEntered="1"/>
    <interval begin="300.00" end="330.00" id="N1_el" nVehContrib="0" flow="0.00" occupancy="0.00" speed="-1.00" harmonicMeanSpeed="-1.00" length="-1.00" nVehEntered="0"/>
    <interval begin="300.00" end="330.00" id="N2_el" nVehContrib="0" flow="0.00" occupancy="0.00" speed="-1.00" harmonicMeanSpeed="-1.00" length="-1.00" nVehEntered="0"/>
    <interval begin="300.00" end="330.00" id="N3_el" nVehContrib="0" flow="0.00" occupancy="0.00" speed="-1.00" harmonicMeanSpeed="-1.00" length="-1.00" nVehEntered="0"/>
    <interval begin="330.00" end="360.00" id="W1_el" nVehContrib="4" flow="480.00" occupancy="15.22" speed="4.87" harmonicMeanSpeed="4.38" length="5.00" nVehEntered="5"/>
    <interval begin="330.00" end="360.00" id="W2_el" nVehContrib="4" flow="480.00" occupancy="15.40" speed="4.53" harmonicMeanSpeed="4.33" length="5.00" nVehEntered="5"/>
    <interval begin="330.00" end="360.00" id="W3_el" nVehContrib="1" flow="120.00" occupancy="5.03" speed="3.31" harmonicMeanSpeed="3.31" length="5.00" nVehEntered="1"/>
    <interval begin="330.00" end="360.00" id="E1_el" nVehContrib="4" flow="480.00" occupancy="15.01" speed="5.12" harmonicMeanSpeed="4.97" length="5.00" nVehEntered="6"/>
    <interval begin="330.00" end="360.00" id="E2_el" nVehContrib="1" flow="120.00" occupancy="6.42" speed="2.60" harmonicMeanSpeed="2.60" length="5.00" nVehEntered="1"/>
    <interval begin="330.00" end="360.00" id="E3_el" nVehContrib="0" flow="0.00" occupancy="0.00" speed="-1.00" harmonicMeanSpeed="-1.00" length="-1.00" nVehEntered="0"/>
    <interval begin="330.00" end="360.00" id="S1_el" nVehContrib="0" flow="0.00" occupancy="0.00" speed="-1.00" harmonicMeanSpeed="-1.00" length="-1.00" nVehEntered="0"/>
    <interval begin="330.00" end="360.00" id="S2_el" nVehContrib="0" flow="0.00" occupancy="0.00" speed="-1.00" harmonicMeanSpeed="-1.00" length="-1.00" nVehEntered="0"/>
    <interval begin="330.00" end="360.00" id="S3_el" nVehContrib="0" flow="0.00" occupancy="0.00" speed="-1.00" harmonicMeanSpeed="-1.00" length="-1.00" nVehEntered="0"/>
    <interval begin="330.00" end="360.00" id="N1_el" nVehContrib="2" flow="240.00" occupancy="25.16" speed="1.38" harmonicMeanSpeed="1.32" length="5.00" nVehEntered="2"/>
    <interval begin="330.00" end="360.00" id="N2_el" nVehContrib="0" flow="0.00" occupancy="0.00" speed="-1.00" harmonicMeanSpeed="-1.00" length="-1.00" nVehEntered="0"/>
    <interval begin="330.00" end="360.00" id="N3_el" nVehContrib="2" flow="240.00" occupancy="6.58" speed="5.07" harmonicMeanSpeed="5.07" length="5.00" nVehEntered="2"/>
    <interval begin="360.00" end="390.00" id="W1_el" nVehContrib="4" flow="480.00" occupancy="16.66" speed="4.17" harmonicMeanSpeed="4.00" length="5.00" nVehEntered="5"/>
    <interval begin="360.00" end="390.00" id="W2_el" nVehContrib="1" flow="120.00" occupancy="4.01" speed="4.15" harmonicMeanSpeed="4.15" length="5.00" nVehEntered="1"/>
    <interval begin="360.00" end="390.00" id="W3_el" nVehContrib="0" flow="0.00" occupancy="0.00" speed="-1.00" harmonicMeanSpeed="-1.00" length="-1.00" nVehEntered="0"/>
    <interval begin="360.00" end="390.00" id="E1_el" nVehContrib="4" flow="480.00" occupancy="13.17" speed="4.57" harmonicMeanSpeed="4.51" length="5.00" nVehEntered="6"/>
    <interval begin="360.00" end="390.00" id="E2_el" nVehContrib="5" flow="600.00" occupancy="23.59" speed="3.74" harmonicMeanSpeed="3.53" length="5.00" nVehEntered="5"/>
    <interval begin="360.00" end="390.00" id="E3_el" nVehContrib="1" flow="120.00" occupancy="3.65" speed="4.57" harmonicMeanSpeed="4.57" length="5.00" nVehEntered="1"/>
    <interval begin="360.00" end="390.00" id="S1_el" nVehContrib="0" flow="0.00" occupancy="0.00" speed="-1.00" harmonicMeanSpeed="-1.00" length="-1.00" nVehEntered="0"/>
    <interval begin="360.00" end="390.00" id="S2_el" nVehContrib="0" flow="0.00" occupancy="0.00" speed="-1.00" harmonicMeanSpeed="-1.00" length="-1.00" nVehEntered="0"/>
    <interval begin="360.00" end="390.00" id="S3_el" nVehContrib="0" flow="0.00" occupancy="0.00" speed="-1.00" harmonicMeanSpeed="-1.00" length="-1.00" nVehEntered="0"/>
    <interval begin="360.00" end="390.00" id="N1_el" nVehContrib="0" flow="0.00" occupancy="0.00" speed="-1.00" harmonicMeanSpeed="-1.00" length="-1.00" nVehEntered="0"/>
    <interval begin="360.00" end="390.00" id="N2_el" nVehContrib="0" flow="0.00" occupancy="0.00" speed="-1.00" harmonicMeanSpeed="-1.00" length="-1.00" nVehEntered="0"/>
    <interval begin="360.00" end="390.00" id="N3_el" nVehContrib="0" flow="0.00" occupancy="0.00" speed="-1.00" harmonicMeanSpeed="-1.00" length="-1.00" nVehEntered="0"/>
    <interval begin="390.00" end="420.00" id="W1_el" nVehContrib="9" flow="1080.00" occupancy="28.84" speed="5.24" harmonicMeanSpeed="5.20" length="5.00" nVehEntered="9"/>
    <interval begin="390.00" end="420.00" id="W2_el" nVehContrib="1" flow="120.00" occupancy="2.85" speed="5.85" harmonicMeanSpeed="5.85" length="5.00" nVehEntered="3"/>
    <interval begin="390.00" end="420.00" id="W3_el" nVehContrib="1" flow="120.00" occupancy="8.10" speed="3.50" harmonicMeanSpeed="3.50" length="5.00" nVehEntered="2"/>
    <interval begin="390.00" end="420.00" id="E1_el" nVehContrib="7" flow="840.00" occupancy="24.61" speed="5.04" harmonicMeanSpeed="4.89" length="5.00" nVehEntered="8"/>
    <interval begin="390.00" end="420.00" id="E2_el" nVehContrib="0" flow="0.00" occupancy="2.60" speed="-1.00" harmonicMeanSpeed="-1.00" length="-1.00" nVehEntered="5"/>
    <interval begin="390.00" end="420.00" id="E3_el" nVehContrib="4" flow="480.00" occupancy="22.53" speed="3.01" harmonicMeanSpeed="2.96" length="5.00" nVehEntered="4"/>
    <interval begin="390.00" end="420.00" id="S1_el" nVehContrib="0" flow="0.00" occupancy="0.00" speed="-1.00" harmonicMeanSpeed="-1.00" length="-1.00" nVehEntered="0"/>
    <interval begin="390.00" end="420.00" id="S2_el" nVehContrib="0" flow="0.00" occupancy="0.00" speed="-1.00" harmonicMeanSpeed="-1.00" length="-1.00" nVehEntered="0"/>
    <interval begin="390.00" end="420.00" id="S3_el" nVehContrib="0" flow="0.00" occupancy="0.00" speed="-1.00" harmonicMeanSpeed="-1.00" length="-1.00" nVehEntered="0"/>
    <interval begin="390.00" end="420.00" id="N1_el" nVehContrib="0" flow="0.00" occupancy="0.00" speed="-1.00" harmonicMeanSpeed="-1.00" length="-1.00" nVehEntered="0"/>
    <interval begin="390.00" end="420.00" id="N2_el" nVehContrib="0" flow="0.00" occupancy="0.00" speed="-1.00" harmonicMeanSpeed="-1.00" length="-1.00" nVehEntered="0"/>
    <interval begin="390.00" end="420.00" id="N3_el" nVehContrib="0" flow="0.00" occupancy="0.00" speed="-1.00" harmonicMeanSpeed="-1.00" length="-1.00" nVehEntered="0"/>
    <interval begin="420.00" end="450.00" id="W1_el" nVehContrib="5" flow="600.00" occupancy="28.55" speed="3.88" harmonicMeanSpeed="3.01" length="5.00" nVehEntered="8"/>
    <interval begin="420.00" end="450.00" id="W2_el" nVehContrib="4" flow="480.00" occupancy="15.29" speed="4.40" harmonicMeanSpeed="4.36" length="5.00" nVehEntered="5"/>