<?xml version="1.0" encoding="UTF-8"?>

<!-- generated on Fri 22 Nov 2019 06:04:02 PM PST by SUMO gui Version 0.25.0
<?xml version="1.0" encoding="UTF-8"?>

<configuration xmlns:xsi="http://www.w3.org/2001/XMLSchema-instance" xsi:noNamespaceSchemaLocation="http://sumo.dlr.de/xsd/sumo-gui.exeConfiguration.xsd">

    <input>
        <net-file value="cross.net.xml"/>
        <route-files value="cross_ref.rou.xml"/>
        <additional-files value="cross.det.xml,cross.add.xml"/>
    </input>

    <time>
        <begin value="0"/>
    </time>

    <report>
        <verbose value="true"/>
        <no-step-log value="true"/>
    </report>

</configuration>
-->

<detector xmlns:xsi="http://www.w3.org/2001/XMLSchema-instance" xsi:noNamespaceSchemaLocation="http://sumo.dlr.de/xsd/det_e1_file.xsd">
   <interval begin="0.00" end="30.00" id="W1_el" nVehContrib="0" flow="0.00" occupancy="0.00" speed="-1.00" length="-1.00" nVehEntered="0"/>
   <interval begin="0.00" end="30.00" id="W2_el" nVehContrib="0" flow="0.00" occupancy="0.00" speed="-1.00" length="-1.00" nVehEntered="0"/>
   <interval begin="0.00" end="30.00" id="W3_el" nVehContrib="0" flow="0.00" occupancy="0.00" speed="-1.00" length="-1.00" nVehEntered="0"/>
   <interval begin="0.00" end="30.00" id="E1_el" nVehContrib="0" flow="0.00" occupancy="0.00" speed="-1.00" length="-1.00" nVehEntered="0"/>
   <interval begin="0.00" end="30.00" id="E2_el" nVehContrib="0" flow="0.00" occupancy="0.00" speed="-1.00" length="-1.00" nVehEntered="0"/>
   <interval begin="0.00" end="30.00" id="E3_el" nVehContrib="0" flow="0.00" occupancy="0.00" speed="-1.00" length="-1.00" nVehEntered="0"/>
   <interval begin="0.00" end="30.00" id="S1_el" nVehContrib="0" flow="0.00" occupancy="0.00" speed="-1.00" length="-1.00" nVehEntered="0"/>
   <interval begin="0.00" end="30.00" id="S2_el" nVehContrib="0" flow="0.00" occupancy="0.00" speed="-1.00" length="-1.00" nVehEntered="0"/>
   <interval begin="0.00" end="30.00" id="S3_el" nVehContrib="0" flow="0.00" occupancy="0.00" speed="-1.00" length="-1.00" nVehEntered="0"/>
   <interval begin="0.00" end="30.00" id="N1_el" nVehContrib="0" flow="0.00" occupancy="0.00" speed="-1.00" length="-1.00" nVehEntered="0"/>
   <interval begin="0.00" end="30.00" id="N2_el" nVehContrib="0" flow="0.00" occupancy="0.00" speed="-1.00" length="-1.00" nVehEntered="0"/>
   <interval begin="0.00" end="30.00" id="N3_el" nVehContrib="0" flow="0.00" occupancy="0.00" speed="-1.00" length="-1.00" nVehEntered="0"/>
   <interval begin="30.00" end="60.00" id="W1_el" nVehContrib="0" flow="0.00" occupancy="0.00" speed="-1.00" length="-1.00" nVehEntered="0"/>
   <interval begin="30.00" end="60.00" id="W2_el" nVehContrib="0" flow="0.00" occupancy="0.00" speed="-1.00" length="-1.00" nVehEntered="0"/>
   <interval begin="30.00" end="60.00" id="W3_el" nVehContrib="0" flow="0.00" occupancy="0.00" speed="-1.00" length="-1.00" nVehEntered="0"/>
   <interval begin="30.00" end="60.00" id="E1_el" nVehContrib="0" flow="0.00" occupancy="0.00" speed="-1.00" length="-1.00" nVehEntered="0"/>
   <interval begin="30.00" end="60.00" id="E2_el" nVehContrib="0" flow="0.00" occupancy="0.00" speed="-1.00" length="-1.00" nVehEntered="0"/>
   <interval begin="30.00" end="60.00" id="E3_el" nVehContrib="0" flow="0.00" occupancy="0.00" speed="-1.00" length="-1.00" nVehEntered="0"/>
   <interval begin="30.00" end="60.00" id="S1_el" nVehContrib="0" flow="0.00" occupancy="0.00" speed="-1.00" length="-1.00" nVehEntered="0"/>
   <interval begin="30.00" end="60.00" id="S2_el" nVehContrib="0" flow="0.00" occupancy="0.00" speed="-1.00" length="-1.00" nVehEntered="0"/>
   <interval begin="30.00" end="60.00" id="S3_el" nVehContrib="0" flow="0.00" occupancy="0.00" speed="-1.00" length="-1.00" nVehEntered="0"/>
   <interval begin="30.00" end="60.00" id="N1_el" nVehContrib="0" flow="0.00" occupancy="0.00" speed="-1.00" length="-1.00" nVehEntered="0"/>
   <interval begin="30.00" end="60.00" id="N2_el" nVehContrib="0" flow="0.00" occupancy="0.00" speed="-1.00" length="-1.00" nVehEntered="0"/>
   <interval begin="30.00" end="60.00" id="N3_el" nVehContrib="1" flow="120.00" occupancy="1.57" speed="10.64" length="5.00" nVehEntered="1"/>
   <interval begin="60.00" end="90.00" id="W1_el" nVehContrib="1" flow="120.00" occupancy="1.54" speed="10.83" length="5.00" nVehEntered="1"/>
   <interval begin="60.00" end="90.00" id="W2_el" nVehContrib="0" flow="0.00" occupancy="0.00" speed="-1.00" length="-1.00" nVehEntered="0"/>
   <interval begin="60.00" end="90.00" id="W3_el" nVehContrib="0" flow="0.00" occupancy="0.00" speed="-1.00" length="-1.00" nVehEntered="0"/>
   <interval begin="60.00" end="90.00" id="E1_el" nVehContrib="0" flow="0.00" occupancy="0.00" speed="-1.00" length="-1.00" nVehEntered="0"/>
   <interval begin="60.00" end="90.00" id="E2_el" nVehContrib="0" flow="0.00" occupancy="0.00" speed="-1.00" length="-1.00" nVehEntered="0"/>
   <interval begin="60.00" end="90.00" id="E3_el" nVehContrib="0" flow="0.00" occupancy="0.00" speed="-1.00" length="-1.00" nVehEntered="0"/>
   <interval begin="60.00" end="90.00" id="S1_el" nVehContrib="0" flow="0.00" occupancy="0.00" speed="-1.00" length="-1.00" nVehEntered="0"/>
   <interval begin="60.00" end="90.00" id="S2_el" nVehContrib="0" flow="0.00" occupancy="0.00" speed="-1.00" length="-1.00" nVehEntered="0"/>
   <interval begin="60.00" end="90.00" id="S3_el" nVehContrib="0" flow="0.00" occupancy="0.00" speed="-1.00" length="-1.00" nVehEntered="0"/>
   <interval begin="60.00" end="90.00" id="N1_el" nVehContrib="0" flow="0.00" occupancy="0.00" speed="-1.00" length="-1.00" nVehEntered="0"/>
   <interval begin="60.00" end="90.00" id="N2_el" nVehContrib="0" flow="0.00" occupancy="0.00" speed="-1.00" length="-1.00" nVehEntered="0"/>
   <interval begin="60.00" end="90.00" id="N3_el" nVehContrib="0" flow="0.00" occupancy="0.00" speed="-1.00" length="-1.00" nVehEntered="0"/>
   <interval begin="90.00" end="120.00" id="W1_el" nVehContrib="0" flow="0.00" occupancy="0.00" speed="-1.00" length="-1.00" nVehEntered="0"/>
   <interval begin="90.00" end="120.00" id="W2_el" nVehContrib="0" flow="0.00" occupancy="0.00" speed="-1.00" length="-1.00" nVehEntered="0"/>
   <interval begin="90.00" end="120.00" id="W3_el" nVehContrib="0" flow="0.00" occupancy="0.00" speed="-1.00" length="-1.00" nVehEntered="0"/>
   <interval begin="90.00" end="120.00" id="E1_el" nVehContrib="0" flow="0.00" occupancy="0.00" speed="-1.00" length="-1.00" nVehEntered="0"/>
   <interval begin="90.00" end="120.00" id="E2_el" nVehContrib="0" flow="0.00" occupancy="0.00" speed="-1.00" length="-1.00" nVehEntered="0"/>
   <interval begin="90.00" end="120.00" id="E3_el" nVehContrib="0" flow="0.00" occupancy="0.00" speed="-1.00" length="-1.00" nVehEntered="0"/>
   <interval begin="90.00" end="120.00" id="S1_el" nVehContrib="0" flow="0.00" occupancy="0.00" speed="-1.00" length="-1.00" nVehEntered="0"/>
   <interval begin="90.00" end="120.00" id="S2_el" nVehContrib="0" flow="0.00" occupancy="0.00" speed="-1.00" length="-1.00" nVehEntered="0"/>
   <interval begin="90.00" end="120.00" id="S3_el" nVehContrib="0" flow="0.00" occupancy="0.00" speed="-1.00" length="-1.00" nVehEntered="0"/>
   <interval begin="90.00" end="120.00" id="N1_el" nVehContrib="1" flow="120.00" occupancy="1.52" speed="10.97" length="5.00" nVehEntered="1"/>
   <interval begin="90.00" end="120.00" id="N2_el" nVehContrib="0" flow="0.00" occupancy="0.00" speed="-1.00" length="-1.00" nVehEntered="0"/>
   <interval begin="90.00" end="120.00" id="N3_el" nVehContrib="0" flow="0.00" occupancy="0.00" speed="-1.00" length="-1.00" nVehEntered="0"/>
   <interval begin="120.00" end="150.00" id="W1_el" nVehContrib="0" flow="0.00" occupancy="0.00" speed="-1.00" length="-1.00" nVehEntered="0"/>
   <interval begin="120.00" end="150.00" id="W2_el" nVehContrib="0" flow="0.00" occupancy="0.00" speed="-1.00" length="-1.00" nVehEntered="0"/>
   <interval begin="120.00" end="150.00" id="W3_el" nVehContrib="0" flow="0.00" occupancy="0.00" speed="-1.00" length="-1.00" nVehEntered="0"/>
   <interval begin="120.00" end="150.00" id="E1_el" nVehContrib="1" flow="120.00" occupancy="1.58" speed="10.55" length="5.00" nVehEntered="1"/>
   <interval begin="120.00" end="150.00" id="E2_el" nVehContrib="0" flow="0.00" occupancy="0.00" speed="-1.00" length="-1.00" nVehEntered="0"/>
   <interval begin="120.00" end="150.00" id="E3_el" nVehContrib="1" flow="120.00" occupancy="1.57" speed="10.64" length="5.00" nVehEntered="1"/>
   <interval begin="120.00" end="150.00" id="S1_el" nVehContrib="0" flow="0.00" occupancy="0.00" speed="-1.00" length="-1.00" nVehEntered="0"/>
   <interval begin="120.00" end="150.00" id="S2_el" nVehContrib="0" flow="0.00" occupancy="0.00" speed="-1.00" length="-1.00" nVehEntered="0"/>
   <interval begin="120.00" end="150.00" id="S3_el" nVehContrib="0" flow="0.00" occupancy="0.00" speed="-1.00" length="-1.00" nVehEntered="0"/>
   <interval begin="120.00" end="150.00" id="N1_el" nVehContrib="0" flow="0.00" occupancy="0.00" speed="-1.00" length="-1.00" nVehEntered="0"/>
   <interval begin="120.00" end="150.00" id="N2_el" nVehContrib="0" flow="0.00" occupancy="0.00" speed="-1.00" length="-1.00" nVehEntered="0"/>
   <interval begin="120.00" end="150.00" id="N3_el" nVehContrib="0" flow="0.00" occupancy="0.00" speed="-1.00" length="-1.00" nVehEntered="0"/>
   <interval begin="150.00" end="180.00" id="W1_el" nVehContrib="0" flow="0.00" occupancy="0.00" speed="-1.00" length="-1.00" nVehEntered="0"/>
   <interval begin="150.00" end="180.00" id="W2_el" nVehContrib="0" flow="0.00" occupancy="0.00" speed="-1.00" length="-1.00" nVehEntered="0"/>
   <interval begin="150.00" end="180.00" id="W3_el" nVehContrib="0" flow="0.00" occupancy="0.00" speed="-1.00" length="-1.00" nVehEntered="0"/>
   <interval begin="150.00" end="180.00" id="E1_el" nVehContrib="0" flow="0.00" occupancy="0.00" speed="-1.00" length="-1.00" nVehEntered="0"/>
   <interval begin="150.00" end="180.00" id="E2_el" nVehContrib="1" flow="120.00" occupancy="1.52" speed="10.96" length="5.00" nVehEntered="1"/>
   <interval begin="150.00" end="180.00" id="E3_el" nVehContrib="0" flow="0.00" occupancy="0.00" speed="-1.00" length="-1.00" nVehEntered="0"/>
   <interval begin="150.00" end="180.00" id="S1_el" nVehContrib="0" flow="0.00" occupancy="0.00" speed="-1.00" length="-1.00" nVehEntered="0"/>
   <interval begin="150.00" end="180.00" id="S2_el" nVehContrib="0" flow="0.00" occupancy="0.00" speed="-1.00" length="-1.00" nVehEntered="0"/>
   <interval begin="150.00" end="180.00" id="S3_el" nVehContrib="1" flow="120.00" occupancy="1.57" speed="10.60" length="5.00" nVehEntered="1"/>
   <interval begin="150.00" end="180.00" id="N1_el" nVehContrib="1" flow="120.00" occupancy="1.57" speed="10.63" length="5.00" nVehEntered="1"/>
   <interval begin="150.00" end="180.00" id="N2_el" nVehContrib="1" flow="120.00" occupancy="1.52" speed="11.00" length="5.00" nVehEntered="1"/>
   <interval begin="150.00" end="180.00" id="N3_el" nVehContrib="1" flow="120.00" occupancy="1.55" speed="10.73" length="5.00" nVehEntered="1"/>
   <interval begin="180.00" end="210.00" id="W1_el" nVehContrib="1" flow="120.00" occupancy="1.57" speed="10.64" length="5.00" nVehEntered="1"/>
   <interval begin="180.00" end="210.00" id="W2_el" nVehContrib="0" flow="0.00" occupancy="0.00" speed="-1.00" length="-1.00" nVehEntered="0"/>
   <interval begin="180.00" end="210.00" id="W3_el" nVehContrib="0" flow="0.00" occupancy="0.00" speed="-1.00" length="-1.00" nVehEntered="0"/>
   <interval begin="180.00" end="210.00" id="E1_el" nVehContrib="0" flow="0.00" occupancy="0.00" speed="-1.00" length="-1.00" nVehEntered="0"/>
   <interval begin="180.00" end="210.00" id="E2_el" nVehContrib="1" flow="120.00" occupancy="1.62" speed="10.29" length="5.00" nVehEntered="1"/>
   <interval begin="180.00" end="210.00" id="E3_el" nVehContrib="0" flow="0.00" occupancy="0.00" speed="-1.00" length="-1.00" nVehEntered="0"/>
   <interval begin="180.00" end="210.00" id="S1_el" nVehContrib="0" flow="0.00" occupancy="0.00" speed="-1.00" length="-1.00" nVehEntered="0"/>
   <interval begin="180.00" end="210.00" id="S2_el" nVehContrib="0" flow="0.00" occupancy="0.00" speed="-1.00" length="-1.00" nVehEntered="0"/>
   <interval begin="180.00" end="210.00" id="S3_el" nVehContrib="1" flow="120.00" occupancy="1.54" speed="10.85" length="5.00" nVehEntered="1"/>
   <interval begin="180.00" end="210.00" id="N1_el" nVehContrib="2" flow="240.00" occupancy="3.29" speed="10.18" length="5.00" nVehEntered="2"/>
   <interval begin="180.00" end="210.00" id="N2_el" nVehContrib="0" flow="0.00" occupancy="0.00" speed="-1.00" length="-1.00" nVehEntered="0"/>
   <interval begin="180.00" end="210.00" id="N3_el" nVehContrib="0" flow="0.00" occupancy="0.00" speed="-1.00" length="-1.00" nVehEntered="0"/>
   <interval begin="210.00" end="240.00" id="W1_el" nVehContrib="0" flow="0.00" occupancy="0.00" speed="-1.00" length="-1.00" nVehEntered="0"/>
   <interval begin="210.00" end="240.00" id="W2_el" nVehContrib="0" flow="0.00" occupancy="0.00" speed="-1.00" length="-1.00" nVehEntered="0"/>
   <interval begin="210.00" end="240.00" id="W3_el" nVehContrib="0" flow="0.00" occupancy="0.00" speed="-1.00" length="-1.00" nVehEntered="0"/>
   <interval begin="210.00" end="240.00" id="E1_el" nVehContrib="2" flow="240.00" occupancy="3.07" speed="10.86" length="5.00" nVehEntered="2"/>
   <interval begin="210.00" end="240.00" id="E2_el" nVehContrib="0" flow="0.00" occupancy="0.00" speed="-1.00" length="-1.00" nVehEntered="0"/>
   <interval begin="210.00" end="240.00" id="E3_el" nVehContrib="0" flow="0.00" occupancy="0.00" speed="-1.00" length="-1.00" nVehEntered="0"/>
   <interval begin="210.00" end="240.00" id="S1_el" nVehContrib="0" flow="0.00" occupancy="0.00" speed="-1.00" length="-1.00" nVehEntered="0"/>
   <interval begin="210.00" end="240.00" id="S2_el" nVehContrib="1" flow="120.00" occupancy="1.57" speed="10.63" length="5.00" nVehEntered="1"/>
   <interval begin="210.00" end="240.00" id="S3_el" nVehContrib="0" flow="0.00" occupancy="0.00" speed="-1.00" length="-1.00" nVehEntered="0"/>
   <interval begin="210.00" end="240.00" id="N1_el" nVehContrib="0" flow="0.00" occupancy="0.00" speed="-1.00" length="-1.00" nVehEntered="0"/>
   <interval begin="210.00" end="240.00" id="N2_el" nVehContrib="1" flow="120.00" occupancy="1.70" speed="9.83" length="5.00" nVehEntered="1"/>
   <interval begin="210.00" end="240.00" id="N3_el" nVehContrib="0" flow="0.00" occupancy="0.00" speed="-1.00" length="-1.00" nVehEntered="0"/>
   <interval begin="240.00" end="270.00" id="W1_el" nVehContrib="0" flow="0.00" occupancy="0.00" speed="-1.00" length="-1.00" nVehEntered="0"/>
   <interval begin="240.00" end="270.00" id="W2_el" nVehContrib="0" flow="0.00" occupancy="0.00" speed="-1.00" length="-1.00" nVehEntered="0"/>
   <interval begin="240.00" end="270.00" id="W3_el" nVehContrib="1" flow="120.00" occupancy="1.55" speed="10.72" length="5.00" nVehEntered="1"/>
   <interval begin="240.00" end="270.00" id="E1_el" nVehContrib="0" flow="0.00" occupancy="0.00" speed="-1.00" length="-1.00" nVehEntered="0"/>
   <interval begin="240.00" end="270.00" id="E2_el" nVehContrib="0" flow="0.00" occupancy="0.00" speed="-1.00" length="-1.00" nVehEntered="0"/>
   <interval begin="240.00" end="270.00" id="E3_el" nVehContrib="0" flow="0.00" occupancy="0.00" speed="-1.00" length="-1.00" nVehEntered="0"/>
   <interval begin="240.00" end="270.00" id="S1_el" nVehContrib="0" flow="0.00" occupancy="0.00" speed="-1.00" length="-1.00" nVehEntered="0"/>
   <interval begin="240.00" end="270.00" id="S2_el" nVehContrib="0" flow="0.00" occupancy="0.00" speed="-1.00" length="-1.00" nVehEntered="0"/>
   <interval begin="240.00" end="270.00" id="S3_el" nVehContrib="1" flow="120.00" occupancy="1.56" speed="10.70" length="5.00" nVehEntered="1"/>
   <interval begin="240.00" end="270.00" id="N1_el" nVehContrib="0" flow="0.00" occupancy="0.00" speed="-1.00" length="-1.00" nVehEntered="0"/>
   <interval begin="240.00" end="270.00" id="N2_el" nVehContrib="0" flow="0.00" occupancy="0.00" speed="-1.00" length="-1.00" nVehEntered="0"/>
   <interval begin="240.00" end="270.00" id="N3_el" nVehContrib="1" flow="120.00" occupancy="1.57" speed="10.60" length="5.00" nVehEntered="1"/>
   <interval begin="270.00" end="300.00" id="W1_el" nVehContrib="0" flow="0.00" occupancy="0.00" speed="-1.00" length="-1.00" nVehEntered="0"/>
   <interval begin="270.00" end="300.00" id="W2_el" nVehContrib="0" flow="0.00" occupancy="0.00" speed="-1.00" length="-1.00" nVehEntered="0"/>
   <interval begin="270.00" end="300.00" id="W3_el" nVehContrib="0" flow="0.00" occupancy="0.00" speed="-1.00" length="-1.00" nVehEntered="0"/>
   <interval begin="270.00" end="300.00" id="E1_el" nVehContrib="0" flow="0.00" occupancy="0.00" speed="-1.00" length="-1.00" nVehEntered="0"/>
   <interval begin="270.00" end="300.00" id="E2_el" nVehContrib="2" flow="240.00" occupancy="3.11" speed="10.71" length="5.00" nVehEntered="2"/>
   <interval begin="270.00" end="300.00" id="E3_el" nVehContrib="0" flow="0.00" occupancy="0.00" speed="-1.00" length="-1.00" nVehEntered="0"/>
   <interval begin="270.00" end="300.00" id="S1_el" nVehContrib="0" flow="0.00" occupancy="0.00" speed="-1.00" length="-1.00" nVehEntered="0"/>
   <interval begin="270.00" end="300.00" id="S2_el" nVehContrib="0" flow="0.00" occupancy="0.00" speed="-1.00" length="-1.00" nVehEntered="0"/>
   <interval begin="270.00" end="300.00" id="S3_el" nVehContrib="0" flow="0.00" occupancy="0.00" speed="-1.00" length="-1.00" nVehEntered="0"/>
   <interval begin="270.00" end="300.00" id="N1_el" nVehContrib="0" flow="0.00" occupancy="0.00" speed="-1.00" length="-1.00" nVehEntered="0"/>
   <interval begin="270.00" end="300.00" id="N2_el" nVehContrib="0" flow="0.00" occupancy="0.00" speed="-1.00" length="-1.00" nVehEntered="0"/>
   <interval begin="270.00" end="300.00" id="N3_el" nVehContrib="1" flow="120.00" occupancy="1.56" speed="10.68" length="5.00" nVehEntered="1"/>
   <interval begin="300.00" end="330.00" id="W1_el" nVehContrib="0" flow="0.00" occupancy="0.00" speed="-1.00" length="-1.00" nVehEntered="0"/>
   <interval begin="300.00" end="330.00" id="W2_el" nVehContrib="0" flow="0.00" occupancy="0.00" speed="-1.00" length="-1.00" nVehEntered="0"/>
   <interval begin="300.00" end="330.00" id="W3_el" nVehContrib="0" flow="0.00" occupancy="0.00" speed="-1.00" length="-1.00" nVehEntered="0"/>
   <interval begin="300.00" end="330.00" id="E1_el" nVehContrib="0" flow="0.00" occupancy="0.00" speed="-1.00" length="-1.00" nVehEntered="0"/>
   <interval begin="300.00" end="330.00" id="E2_el" nVehContrib="1" flow="120.00" occupancy="1.52" speed="10.95" length="5.00" nVehEntered="1"/>
   <interval begin="300.00" end="330.00" id="E3_el" nVehContrib="0" flow="0.00" occupancy="0.00" speed="-1.00" length="-1.00" nVehEntered="0"/>
   <interval begin="300.00" end="330.00" id="S1_el" nVehContrib="0" flow="0.00" occupancy="0.00" speed="-1.00" length="-1.00" nVehEntered="0"/>
   <interval begin="300.00" end="330.00" id="S2_el" nVehContrib="1" flow="120.00" occupancy="1.58" speed="10.56" length="5.00" nVehEntered="1"/>
   <interval begin="300.00" end="330.00" id="S3_el" nVehContrib="0" flow="0.00" occupancy="0.00" speed="-1.00" length="-1.00" nVehEntered="0"/>
   <interval begin="300.00" end="330.00" id="N1_el" nVehContrib="1" flow="120.00" occupancy="1.52" speed="10.99" length="5.00" nVehEntered="1"/>
   <interval begin="300.00" end="330.00" id="N2_el" nVehContrib="1" flow="120.00" occupancy="1.64" speed="10.14" length="5.00" nVehEntered="1"/>
   <interval begin="300.00" end="330.00" id="N3_el" nVehContrib="0" flow="0.00" occupancy="0.00" speed="-1.00" length="-1.00" nVehEntered="0"/>
   <interval begin="330.00" end="360.00" id="W1_el" nVehContrib="2" flow="240.00" occupancy="3.20" speed="10.42" length="5.00" nVehEntered="2"/>
   <interval begin="330.00" end="360.00" id="W2_el" nVehContrib="0" flow="0.00" occupancy="0.00" speed="-1.00" length="-1.00" nVehEntered="0"/>
   <interval begin="330.00" end="360.00" id="W3_el" nVehContrib="1" flow="120.00" occupancy="1.53" speed="10.89" length="5.00" nVehEntered="1"/>
   <interval begin="330.00" end="360.00" id="E1_el" nVehContrib="1" flow="120.00" occupancy="1.52" speed="10.94" length="5.00" nVehEntered="1"/>
   <interval begin="330.00" end="360.00" id="E2_el" nVehContrib="0" flow="0.00" occupancy="0.00" speed="-1.00" length="-1.00" nVehEntered="0"/>
   <interval begin="330.00" end="360.00" id="E3_el" nVehContrib="0" flow="0.00" occupancy="0.00" speed="-1.00" length="-1.00" nVehEntered="0"/>
   <interval begin="330.00" end="360.00" id="S1_el" nVehContrib="1" flow="120.00" occupancy="1.53" speed="10.88" length="5.00" nVehEntered="1"/>
   <interval begin="330.00" end="360.00" id="S2_el" nVehContrib="1" flow="120.00" occupancy="1.59" speed="10.50" length="5.00" nVehEntered="1"/>
   <interval begin="330.00" end="360.00" id="S3_el" nVehContrib="1" flow="120.00" occupancy="1.54" speed="10.79" length="5.00" nVehEntered="1"/>
   <interval begin="330.00" end="360.00" id="N1_el" nVehContrib="1" flow="120.00" occupancy="1.52" speed="10.98" length="5.00" nVehEntered="1"/>
   <interval begin="330.00" end="360.00" id="N2_el" nVehContrib="1" flow="120.00" occupancy="1.58" speed="10.57" length="5.00" nVehEntered="1"/>
   <interval begin="330.00" end="360.00" id="N3_el" nVehContrib="1" flow="120.00" occupancy="1.55" speed="10.75" length="5.00" nVehEntered="1"/>
   <interval begin="360.00" end="390.00" id="W1_el" nVehContrib="0" flow="0.00" occupancy="0.00" speed="-1.00" length="-1.00" nVehEntered="0"/>
   <interval begin="360.00" end="390.00" id="W2_el" nVehContrib="0" flow="0.00" occupancy="0.00" speed="-1.00" length="-1.00" nVehEntered="0"/>
   <interval begin="360.00" end="390.00" id="W3_el" nVehContrib="0" flow="0.00" occupancy="0.00" speed="-1.00" length="-1.00" nVehEntered="0"/>
   <interval begin="360.00" end="390.00" id="E1_el" nVehContrib="0" flow="0.00" occupancy="0.00" speed="-1.00" length="-1.00" nVehEntered="0"/>
   <interval begin="360.00" end="390.00" id="E2_el" nVehContrib="0" flow="0.00" occupancy="0.00" speed="-1.00" length="-1.00" nVehEntered="0"/>
   <interval begin="360.00" end="390.00" id="E3_el" nVehContrib="0" flow="0.00" occupancy="0.00" speed="-1.00" length="-1.00" nVehEntered="0"/>
   <interval begin="360.00" end="390.00" id="S1_el" nVehContrib="0" flow="0.00" occupancy="0.00" speed="-1.00" length="-1.00" nVehEntered="0"/>
   <interval begin="360.00" end="390.00" id="S2_el" nVehContrib="1" flow="120.00" occupancy="1.57" speed="10.64" length="5.00" nVehEntered="1"/>
   <interval begin="360.00" end="390.00" id="S3_el" nVehContrib="2" flow="240.00" occupancy="3.07" speed="10.87" length="5.00" nVehEntered="2"/>
   <interval begin="360.00" end="390.00" id="N1_el" nVehContrib="1" flow="120.00" occupancy="1.55" speed="10.74" length="5.00" nVehEntered="1"/>
   <interval begin="360.00" end="390.00" id="N2_el" nVehContrib="1" flow="120.00" occupancy="1.56" speed="10.68" length="5.00" nVehEntered="1"/>
   <interval begin="360.00" end="390.00" id="N3_el" nVehContrib="0" flow="0.00" occupancy="0.00" speed="-1.00" length="-1.00" nVehEntered="0"/>
   <interval begin="390.00" end="420.00" id="W1_el" nVehContrib="2" flow="240.00" occupancy="3.10" speed="10.77" length="5.00" nVehEntered="2"/>
   <interval begin="390.00" end="420.00" id="W2_el" nVehContrib="0" flow="0.00" occupancy="0.00" speed="-1.00" length="-1.00" nVehEntered="0"/>
   <interval begin="390.00" end="420.00" id="W3_el" nVehContrib="3" flow="360.00" occupancy="4.65" speed="10.75" length="5.00" nVehEntered="3"/>
   <interval begin="390.00" end="420.00" id="E1_el" nVehContrib="1" flow="120.00" occupancy="1.52" speed="10.93" length="5.00" nVehEntered="1"/>
   <interval begin="390.00" end="420.00" id="E2_el" nVehContrib="1" flow="120.00" occupancy="1.58" speed="10.56" length="5.00" nVehEntered="1"/>
   <interval begin="390.00" end="420.00" id="E3_el" nVehContrib="1" flow="120.00" occupancy="1.57" speed="10.63" length="5.00" nVehEntered="1"/>
   <interval begin="390.00" end="420.00" id="S1_el" nVehContrib="1" flow="120.00" occupancy="1.53" speed="10.90" length="5.00" nVehEntered="1"/>
   <interval begin="390.00" end="420.00" id="S2_el" nVehContrib="0" flow="0.00" occupancy="0.00" speed="-1.00" length="-1.00" nVehEntered="0"/>
   <interval begin="390.00" end="420.00" id="S3_el" nVehContrib="0" flow="0.00" occupancy="0.00" speed="-1.00" length="-1.00" nVehEntered="0"/>
   <interval begin="390.00" end="420.00" id="N1_el" nVehContrib="0" flow="0.00" occupancy="0.00" speed="-1.00" length="-1.00" nVehEntered="0"/>
   <interval begin="390.00" end="420.00" id="N2_el" nVehContrib="0" flow="0.00" occupancy="0.00" speed="-1.00" length="-1.00" nVehEntered="0"/>
   <interval begin="390.00" end="420.00" id="N3_el" nVehContrib="0" flow="0.00" occupancy="0.00" speed="-1.00" length="-1.00" nVehEntered="0"/>
   <interval begin="420.00" end="450.00" id="W1_el" nVehContrib="0" flow="0.00" occupancy="0.00" speed="-1.00" length="-1.00" nVehEntered="0"/>
   <interval begin="420.00" end="450.00" id="W2_el" nVehContrib="1" flow="120.00" occupancy="1.56" speed="10.66" length="5.00" nVehEntered="1"/>
   <interval begin="420.00" end="450.00" id="W3_el" nVehContrib="0" flow="0.00" occupancy="0.00" speed="-1.00" length="-1.00" nVehEntered="0"/>
   <interval begin="420.00" end="450.00" id="E1_el" nVehContrib="1" flow="120.00" occupancy="1.52" speed="10.95" length="5.00" nVehEntered="1"/>
   <interval begin="420.00" end="450.00" id="E2_el" nVehContrib="1" flow="120.00" occupancy="1.58" speed="10.52" length="5.00" nVehEntered="1"/>
   <interval begin="420.00" end="450.00" id="E3_el" nVehContrib="1" flow="120.00" occupancy="1.52" speed="10.97" length="5.00" nVehEntered="1"/>
   <interval begin="420.00" end="450.00" id="S1_el" nVehContrib="0" flow="0.00" occupancy="0.00" speed="-1.00" length="-1.00" nVehEntered="0"/>
   <interval begin="420.00" end="450.00" id="S2_el" nVehContrib="0" flow="0.00" occupancy="0.00" speed="-1.00" length="-1.00" nVehEntered="0"/>
   <interval begin="420.00" end="450.00" id="S3_el" nVehContrib="0" flow="0.00" occupancy="0.00" speed="-1.00" length="-1.00" nVehEntered="0"/>
   <interval begin="420.00" end="450.00" id="N1_el" nVehContrib="0" flow="0.00" occupancy="0.00" speed="-1.00" length="-1.00" nVehEntered="0"/>
   <interval begin="420.00" end="450.00" id="N2_el" nVehContrib="0" flow="0.00" occupancy="0.00" speed="-1.00" length="-1.00" nVehEntered="0"/>
   <interval begin="420.00" end="450.00" id="N3_el" nVehContrib="0" flow="0.00" occupancy="0.00" speed="-1.00" length="-1.00" nVehEntered="0"/>
   <interval begin="450.00" end="480.00" id="W1_el" nVehContrib="0" flow="0.00" occupancy="0.00" speed="-1.00" length="-1.00" nVehEntered="0"/>
   <interval begin="450.00" end="480.00" id="W2_el" nVehContrib="1" flow="120.00" occupancy="1.56" speed="10.68" length="5.00" nVehEntered="1"/>
   <interval begin="450.00" end="480.00" id="W3_el" nVehContrib="1" flow="120.00" occupancy="1.52" speed="10.94" length="5.00" nVehEntered="1"/>
   <interval begin="450.00" end="480.00" id="E1_el" nVehContrib="0" flow="0.00" occupancy="0.00" speed="-1.00" length="-1.00" nVehEntered="0"/>
   <interval begin="450.00" end="480.00" id="E2_el" nVehContrib="2" flow="240.00" occupancy="3.30" speed="10.13" length="5.00" nVehEntered="2"/>
   <interval begin="450.00" end="480.00" id="E3_el" nVehContrib="0" flow="0.00" occupancy="0.00" speed="-1.00" length="-1.00" nVehEntered="0"/>
   <interval begin="450.00" end="480.00" id="S1_el" nVehContrib="0" flow="0.00" occupancy="0.00" speed="-1.00" length="-1.00" nVehEntered="0"/>
   <interval begin="450.00" end="480.00" id="S2_el" nVehContrib="0" flow="0.00" occupancy="0.00" speed="-1.00" length="-1.00" nVehEntered="0"/>
   <interval begin="450.00" end="480.00" id="S3_el" nVehContrib="0" flow="0.00" occupancy="0.00" speed="-1.00" length="-1.00" nVehEntered="0"/>
   <interval begin="450.00" end="480.00" id="N1_el" nVehContrib="0" flow="0.00" occupancy="0.00" speed="-1.00" length="-1.00" nVehEntered="0"/>
   <interval begin="450.00" end="480.00" id="N2_el" nVehContrib="0" flow="0.00" occupancy="0.00" speed="-1.00" length="-1.00" nVehEntered="0"/>
   <interval begin="450.00" end="480.00" id="N3_el" nVehContrib="0" flow="0.00" occupancy="0.00" speed="-1.00" length="-1.00" nVehEntered="0"/>
   <interval begin="480.00" end="510.00" id="W1_el" nVehContrib="0" flow="0.00" occupancy="0.00" speed="-1.00" length="-1.00" nVehEntered="0"/>
   <interval begin="480.00" end="510.00" id="W2_el" nVehContrib="0" flow="0.00" occupancy="0.00" speed="-1.00" length="-1.00" nVehEntered="0"/>
   <interval begin="480.00" end="510.00" id="W3_el" nVehContrib="0" flow="0.00" occupancy="0.00" speed="-1.00" length="-1.00" nVehEntered="0"/>
   <interval begin="480.00" end="510.00" id="E1_el" nVehContrib="0" flow="0.00" occupancy="0.00" speed="-1.00" length="-1.00" nVehEntered="0"/>
   <interval begin="480.00" end="510.00" id="E2_el" nVehContrib="2" flow="240.00" occupancy="3.31" speed="10.07" length="5.00" nVehEntered="2"/>
   <interval begin="480.00" end="510.00" id="E3_el" nVehContrib="1" flow="120.00" occupancy="1.60" speed="10.39" length="5.00" nVehEntered="1"/>
   <interval begin="480.00" end="510.00" id="S1_el" nVehContrib="0" flow="0.00" occupancy="0.00" speed="-1.00" length="-1.00" nVehEntered="0"/>
   <interval begin="480.00" end="510.00" id="S2_el" nVehContrib="0" flow="0.00" occupancy="0.00" speed="-1.00" length="-1.00" nVehEntered="0"/>
   <interval begin="480.00" end="510.00" id="S3_el" nVehContrib="0" flow="0.00" occupancy="0.00" speed="-1.00" length="-1.00" nVehEntered="0"/>
   <interval begin="480.00" end="510.00" id="N1_el" nVehContrib="1" flow="120.00" occupancy="1.58" speed="10.54" length="5.00" nVehEntered="1"/>
   <interval begin="480.00" end="510.00" id="N2_el" nVehContrib="0" flow="0.00" occupancy="0.00" speed="-1.00" length="-1.00" nVehEntered="0"/>