<?xml version="1.0" encoding="UTF-8"?>

<!-- generated on Thu 21 Nov 2019 10:16:46 PM PST by SUMO gui Version 0.25.0
<?xml version="1.0" encoding="UTF-8"?>

<configuration xmlns:xsi="http://www.w3.org/2001/XMLSchema-instance" xsi:noNamespaceSchemaLocation="http://sumo.dlr.de/xsd/sumo-gui.exeConfiguration.xsd">

    <input>
        <net-file value="cross.net.xml"/>
        <route-files value="cross.rou.xml"/>
        <additional-files value="cross.det.xml,cross.add.xml"/>
    </input>

    <time>
        <begin value="0"/>
    </time>

    <report>
        <verbose value="true"/>
        <no-step-log value="true"/>
    </report>

</configuration>
-->

<detector xmlns:xsi="http://www.w3.org/2001/XMLSchema-instance" xsi:noNamespaceSchemaLocation="http://sumo.dlr.de/xsd/det_e1_file.xsd">
   <interval begin="0.00" end="30.00" id="W1_el" nVehContrib="1" flow="120.00" occupancy="1.07" speed="15.56" length="5.00" nVehEntered="1"/>
   <interval begin="0.00" end="30.00" id="W2_el" nVehContrib="0" flow="0.00" occupancy="0.00" speed="-1.00" length="-1.00" nVehEntered="0"/>
   <interval begin="0.00" end="30.00" id="W3_el" nVehContrib="0" flow="0.00" occupancy="0.00" speed="-1.00" length="-1.00" nVehEntered="0"/>
   <interval begin="0.00" end="30.00" id="E1_el" nVehContrib="1" flow="120.00" occupancy="1.04" speed="16.01" length="5.00" nVehEntered="1"/>
   <interval begin="0.00" end="30.00" id="E2_el" nVehContrib="0" flow="0.00" occupancy="0.00" speed="-1.00" length="-1.00" nVehEntered="0"/>
   <interval begin="0.00" end="30.00" id="E3_el" nVehContrib="0" flow="0.00" occupancy="0.00" speed="-1.00" length="-1.00" nVehEntered="0"/>
   <interval begin="0.00" end="30.00" id="S1_el" nVehContrib="0" flow="0.00" occupancy="0.00" speed="-1.00" length="-1.00" nVehEntered="0"/>
   <interval begin="0.00" end="30.00" id="S2_el" nVehContrib="0" flow="0.00" occupancy="0.00" speed="-1.00" length="-1.00" nVehEntered="0"/>
   <interval begin="0.00" end="30.00" id="S3_el" nVehContrib="0" flow="0.00" occupancy="0.00" speed="-1.00" length="-1.00" nVehEntered="0"/>
   <interval begin="0.00" end="30.00" id="N1_el" nVehContrib="1" flow="120.00" occupancy="0.88" speed="18.95" length="5.00" nVehEntered="1"/>
   <interval begin="0.00" end="30.00" id="N2_el" nVehContrib="0" flow="0.00" occupancy="0.00" speed="-1.00" length="-1.00" nVehEntered="0"/>
   <interval begin="0.00" end="30.00" id="N3_el" nVehContrib="0" flow="0.00" occupancy="0.00" speed="-1.00" length="-1.00" nVehEntered="0"/>
   <interval begin="30.00" end="60.00" id="W1_el" nVehContrib="8" flow="960.00" occupancy="7.14" speed="18.70" length="5.00" nVehEntered="9"/>
   <interval begin="30.00" end="60.00" id="W2_el" nVehContrib="0" flow="0.00" occupancy="0.00" speed="-1.00" length="-1.00" nVehEntered="0"/>
   <interval begin="30.00" end="60.00" id="W3_el" nVehContrib="1" flow="120.00" occupancy="0.97" speed="17.16" length="5.00" nVehEntered="1"/>
   <interval begin="30.00" end="60.00" id="E1_el" nVehContrib="8" flow="960.00" occupancy="7.74" speed="17.53" length="5.00" nVehEntered="8"/>
   <interval begin="30.00" end="60.00" id="E2_el" nVehContrib="2" flow="240.00" occupancy="1.91" speed="17.51" length="5.00" nVehEntered="2"/>
   <interval begin="30.00" end="60.00" id="E3_el" nVehContrib="0" flow="0.00" occupancy="0.00" speed="-1.00" length="-1.00" nVehEntered="0"/>
   <interval begin="30.00" end="60.00" id="S1_el" nVehContrib="5" flow="600.00" occupancy="7.86" speed="11.98" length="5.00" nVehEntered="5"/>
   <interval begin="30.00" end="60.00" id="S2_el" nVehContrib="3" flow="360.00" occupancy="3.46" speed="14.55" length="5.00" nVehEntered="3"/>
   <interval begin="30.00" end="60.00" id="S3_el" nVehContrib="2" flow="240.00" occupancy="1.92" speed="17.37" length="5.00" nVehEntered="2"/>
   <interval begin="30.00" end="60.00" id="N1_el" nVehContrib="4" flow="480.00" occupancy="4.82" speed="14.35" length="5.00" nVehEntered="4"/>
   <interval begin="30.00" end="60.00" id="N2_el" nVehContrib="3" flow="360.00" occupancy="3.44" speed="14.80" length="5.00" nVehEntered="3"/>
   <interval begin="30.00" end="60.00" id="N3_el" nVehContrib="2" flow="240.00" occupancy="2.16" speed="15.47" length="5.00" nVehEntered="2"/>
   <interval begin="60.00" end="90.00" id="W1_el" nVehContrib="8" flow="960.00" occupancy="10.03" speed="14.24" length="5.00" nVehEntered="8"/>
   <interval begin="60.00" end="90.00" id="W2_el" nVehContrib="1" flow="120.00" occupancy="1.05" speed="15.90" length="5.00" nVehEntered="1"/>
   <interval begin="60.00" end="90.00" id="W3_el" nVehContrib="1" flow="120.00" occupancy="1.22" speed="13.66" length="5.00" nVehEntered="1"/>
   <interval begin="60.00" end="90.00" id="E1_el" nVehContrib="8" flow="960.00" occupancy="9.44" speed="15.00" length="5.00" nVehEntered="9"/>
   <interval begin="60.00" end="90.00" id="E2_el" nVehContrib="0" flow="0.00" occupancy="0.00" speed="-1.00" length="-1.00" nVehEntered="0"/>
   <interval begin="60.00" end="90.00" id="E3_el" nVehContrib="1" flow="120.00" occupancy="1.05" speed="15.84" length="5.00" nVehEntered="1"/>
   <interval begin="60.00" end="90.00" id="S1_el" nVehContrib="1" flow="120.00" occupancy="72.55" speed="6.75" length="5.00" nVehEntered="1"/>
   <interval begin="60.00" end="90.00" id="S2_el" nVehContrib="1" flow="120.00" occupancy="49.12" speed="4.44" length="5.00" nVehEntered="1"/>
   <interval begin="60.00" end="90.00" id="S3_el" nVehContrib="2" flow="240.00" occupancy="2.18" speed="15.74" length="5.00" nVehEntered="2"/>
   <interval begin="60.00" end="90.00" id="N1_el" nVehContrib="1" flow="120.00" occupancy="79.18" speed="5.07" length="5.00" nVehEntered="1"/>
   <interval begin="60.00" end="90.00" id="N2_el" nVehContrib="2" flow="240.00" occupancy="38.41" speed="8.04" length="5.00" nVehEntered="2"/>
   <interval begin="60.00" end="90.00" id="N3_el" nVehContrib="1" flow="120.00" occupancy="0.91" speed="18.29" length="5.00" nVehEntered="1"/>
   <interval begin="90.00" end="120.00" id="W1_el" nVehContrib="1" flow="120.00" occupancy="46.26" speed="6.11" length="5.00" nVehEntered="2"/>
   <interval begin="90.00" end="120.00" id="W2_el" nVehContrib="1" flow="120.00" occupancy="17.65" speed="5.51" length="5.00" nVehEntered="1"/>
   <interval begin="90.00" end="120.00" id="W3_el" nVehContrib="2" flow="240.00" occupancy="2.82" speed="11.97" length="5.00" nVehEntered="2"/>
   <interval begin="90.00" end="120.00" id="E1_el" nVehContrib="1" flow="120.00" occupancy="36.10" speed="6.31" length="5.00" nVehEntered="2"/>
   <interval begin="90.00" end="120.00" id="E2_el" nVehContrib="1" flow="120.00" occupancy="14.09" speed="5.66" length="5.00" nVehEntered="1"/>
   <interval begin="90.00" end="120.00" id="E3_el" nVehContrib="3" flow="360.00" occupancy="3.15" speed="16.31" length="5.00" nVehEntered="3"/>
   <interval begin="90.00" end="120.00" id="S1_el" nVehContrib="0" flow="0.00" occupancy="100.00" speed="-1.00" length="-1.00" nVehEntered="0"/>
   <interval begin="90.00" end="120.00" id="S2_el" nVehContrib="0" flow="0.00" occupancy="100.00" speed="-1.00" length="-1.00" nVehEntered="0"/>
   <interval begin="90.00" end="120.00" id="S3_el" nVehContrib="2" flow="240.00" occupancy="1.91" speed="17.52" length="5.00" nVehEntered="2"/>
   <interval begin="90.00" end="120.00" id="N1_el" nVehContrib="0" flow="0.00" occupancy="100.00" speed="-1.00" length="-1.00" nVehEntered="0"/>
   <interval begin="90.00" end="120.00" id="N2_el" nVehContrib="0" flow="0.00" occupancy="100.00" speed="-1.00" length="-1.00" nVehEntered="0"/>
   <interval begin="90.00" end="120.00" id="N3_el" nVehContrib="2" flow="240.00" occupancy="1.77" speed="18.80" length="5.00" nVehEntered="2"/>
   <interval begin="120.00" end="150.00" id="W1_el" nVehContrib="0" flow="0.00" occupancy="100.00" speed="-1.00" length="-1.00" nVehEntered="0"/>
   <interval begin="120.00" end="150.00" id="W2_el" nVehContrib="0" flow="0.00" occupancy="100.00" speed="-1.00" length="-1.00" nVehEntered="0"/>
   <interval begin="120.00" end="150.00" id="W3_el" nVehContrib="3" flow="360.00" occupancy="2.81" speed="17.83" length="5.00" nVehEntered="3"/>
   <interval begin="120.00" end="150.00" id="E1_el" nVehContrib="0" flow="0.00" occupancy="100.00" speed="-1.00" length="-1.00" nVehEntered="0"/>
   <interval begin="120.00" end="150.00" id="E2_el" nVehContrib="0" flow="0.00" occupancy="100.00" speed="-1.00" length="-1.00" nVehEntered="0"/>
   <interval begin="120.00" end="150.00" id="E3_el" nVehContrib="2" flow="240.00" occupancy="1.86" speed="17.98" length="5.00" nVehEntered="2"/>
   <interval begin="120.00" end="150.00" id="S1_el" nVehContrib="0" flow="0.00" occupancy="100.00" speed="-1.00" length="-1.00" nVehEntered="0"/>
   <interval begin="120.00" end="150.00" id="S2_el" nVehContrib="0" flow="0.00" occupancy="100.00" speed="-1.00" length="-1.00" nVehEntered="0"/>
   <interval begin="120.00" end="150.00" id="S3_el" nVehContrib="2" flow="240.00" occupancy="2.41" speed="13.93" length="5.00" nVehEntered="2"/>
   <interval begin="120.00" end="150.00" id="N1_el" nVehContrib="0" flow="0.00" occupancy="100.00" speed="-1.00" length="-1.00" nVehEntered="0"/>
   <interval begin="120.00" end="150.00" id="N2_el" nVehContrib="0" flow="0.00" occupancy="100.00" speed="-1.00" length="-1.00" nVehEntered="0"/>
   <interval begin="120.00" end="150.00" id="N3_el" nVehContrib="2" flow="240.00" occupancy="2.48" speed="13.72" length="5.00" nVehEntered="2"/>
   <interval begin="150.00" end="180.00" id="W1_el" nVehContrib="11" flow="1320.00" occupancy="23.32" speed="10.84" length="5.00" nVehEntered="11"/>
   <interval begin="150.00" end="180.00" id="W2_el" nVehContrib="9" flow="1080.00" occupancy="19.69" speed="8.62" length="5.00" nVehEntered="9"/>
   <interval begin="150.00" end="180.00" id="W3_el" nVehContrib="2" flow="240.00" occupancy="1.91" speed="17.60" length="5.00" nVehEntered="2"/>
   <interval begin="150.00" end="180.00" id="E1_el" nVehContrib="0" flow="0.00" occupancy="100.00" speed="-1.00" length="-1.00" nVehEntered="0"/>
   <interval begin="150.00" end="180.00" id="E2_el" nVehContrib="0" flow="0.00" occupancy="100.00" speed="-1.00" length="-1.00" nVehEntered="0"/>
   <interval begin="150.00" end="180.00" id="E3_el" nVehContrib="2" flow="240.00" occupancy="2.01" speed="16.69" length="5.00" nVehEntered="2"/>
   <interval begin="150.00" end="180.00" id="S1_el" nVehContrib="0" flow="0.00" occupancy="100.00" speed="-1.00" length="-1.00" nVehEntered="0"/>
   <interval begin="150.00" end="180.00" id="S2_el" nVehContrib="0" flow="0.00" occupancy="100.00" speed="-1.00" length="-1.00" nVehEntered="0"/>
   <interval begin="150.00" end="180.00" id="S3_el" nVehContrib="1" flow="120.00" occupancy="3.95" speed="10.05" length="5.00" nVehEntered="1"/>
   <interval begin="150.00" end="180.00" id="N1_el" nVehContrib="0" flow="0.00" occupancy="100.00" speed="-1.00" length="-1.00" nVehEntered="0"/>
   <interval begin="150.00" end="180.00" id="N2_el" nVehContrib="0" flow="0.00" occupancy="100.00" speed="-1.00" length="-1.00" nVehEntered="0"/>
   <interval begin="150.00" end="180.00" id="N3_el" nVehContrib="2" flow="240.00" occupancy="4.47" speed="7.97" length="5.00" nVehEntered="2"/>
   <interval begin="180.00" end="210.00" id="W1_el" nVehContrib="5" flow="600.00" occupancy="7.11" speed="11.90" length="5.00" nVehEntered="5"/>
   <interval begin="180.00" end="210.00" id="W2_el" nVehContrib="1" flow="120.00" occupancy="1.01" speed="16.57" length="5.00" nVehEntered="1"/>
   <interval begin="180.00" end="210.00" id="W3_el" nVehContrib="3" flow="360.00" occupancy="3.93" speed="12.99" length="5.00" nVehEntered="3"/>
   <interval begin="180.00" end="210.00" id="E1_el" nVehContrib="12" flow="1440.00" occupancy="41.38" speed="9.99" length="5.00" nVehEntered="12"/>
   <interval begin="180.00" end="210.00" id="E2_el" nVehContrib="11" flow="1320.00" occupancy="44.18" speed="8.67" length="5.00" nVehEntered="11"/>
   <interval begin="180.00" end="210.00" id="E3_el" nVehContrib="5" flow="600.00" occupancy="4.98" speed="17.39" length="5.00" nVehEntered="5"/>
   <interval begin="180.00" end="210.00" id="S1_el" nVehContrib="0" flow="0.00" occupancy="100.00" speed="-1.00" length="-1.00" nVehEntered="0"/>
   <interval begin="180.00" end="210.00" id="S2_el" nVehContrib="0" flow="0.00" occupancy="100.00" speed="-1.00" length="-1.00" nVehEntered="0"/>
   <interval begin="180.00" end="210.00" id="S3_el" nVehContrib="1" flow="120.00" occupancy="49.22" speed="6.99" length="5.00" nVehEntered="1"/>
   <interval begin="180.00" end="210.00" id="N1_el" nVehContrib="0" flow="0.00" occupancy="100.00" speed="-1.00" length="-1.00" nVehEntered="0"/>
   <interval begin="180.00" end="210.00" id="N2_el" nVehContrib="0" flow="0.00" occupancy="100.00" speed="-1.00" length="-1.00" nVehEntered="0"/>
   <interval begin="180.00" end="210.00" id="N3_el" nVehContrib="0" flow="0.00" occupancy="68.00" speed="-1.00" length="-1.00" nVehEntered="0"/>
   <interval begin="210.00" end="240.00" id="W1_el" nVehContrib="1" flow="120.00" occupancy="65.09" speed="5.41" length="5.00" nVehEntered="1"/>
   <interval begin="210.00" end="240.00" id="W2_el" nVehContrib="2" flow="240.00" occupancy="26.86" speed="7.84" length="5.00" nVehEntered="2"/>
   <interval begin="210.00" end="240.00" id="W3_el" nVehContrib="1" flow="120.00" occupancy="39.58" speed="5.96" length="5.00" nVehEntered="1"/>
   <interval begin="210.00" end="240.00" id="E1_el" nVehContrib="6" flow="720.00" occupancy="14.58" speed="9.38" length="5.00" nVehEntered="6"/>
   <interval begin="210.00" end="240.00" id="E2_el" nVehContrib="3" flow="360.00" occupancy="6.01" speed="8.82" length="5.00" nVehEntered="3"/>
   <interval begin="210.00" end="240.00" id="E3_el" nVehContrib="2" flow="240.00" occupancy="2.05" speed="16.45" length="5.00" nVehEntered="2"/>
   <interval begin="210.00" end="240.00" id="S1_el" nVehContrib="9" flow="1080.00" occupancy="58.94" speed="8.82" length="5.00" nVehEntered="9"/>
   <interval begin="210.00" end="240.00" id="S2_el" nVehContrib="8" flow="960.00" occupancy="59.97" speed="7.59" length="5.00" nVehEntered="8"/>
   <interval begin="210.00" end="240.00" id="S3_el" nVehContrib="3" flow="360.00" occupancy="51.47" speed="8.08" length="5.00" nVehEntered="3"/>
   <interval begin="210.00" end="240.00" id="N1_el" nVehContrib="0" flow="0.00" occupancy="100.00" speed="-1.00" length="-1.00" nVehEntered="0"/>
   <interval begin="210.00" end="240.00" id="N2_el" nVehContrib="0" flow="0.00" occupancy="100.00" speed="-1.00" length="-1.00" nVehEntered="0"/>
   <interval begin="210.00" end="240.00" id="N3_el" nVehContrib="0" flow="0.00" occupancy="100.00" speed="-1.00" length="-1.00" nVehEntered="0"/>
   <interval begin="240.00" end="270.00" id="W1_el" nVehContrib="0" flow="0.00" occupancy="100.00" speed="-1.00" length="-1.00" nVehEntered="0"/>
   <interval begin="240.00" end="270.00" id="W2_el" nVehContrib="0" flow="0.00" occupancy="100.00" speed="-1.00" length="-1.00" nVehEntered="0"/>
   <interval begin="240.00" end="270.00" id="W3_el" nVehContrib="0" flow="0.00" occupancy="100.00" speed="-1.00" length="-1.00" nVehEntered="0"/>
   <interval begin="240.00" end="270.00" id="E1_el" nVehContrib="0" flow="0.00" occupancy="89.18" speed="-1.00" length="-1.00" nVehEntered="0"/>
   <interval begin="240.00" end="270.00" id="E2_el" nVehContrib="0" flow="0.00" occupancy="80.02" speed="-1.00" length="-1.00" nVehEntered="0"/>
   <interval begin="240.00" end="270.00" id="E3_el" nVehContrib="1" flow="120.00" occupancy="1.23" speed="13.53" length="5.00" nVehEntered="1"/>
   <interval begin="240.00" end="270.00" id="S1_el" nVehContrib="8" flow="960.00" occupancy="44.00" speed="11.96" length="5.00" nVehEntered="8"/>
   <interval begin="240.00" end="270.00" id="S2_el" nVehContrib="7" flow="840.00" occupancy="56.37" speed="8.98" length="5.00" nVehEntered="7"/>
   <interval begin="240.00" end="270.00" id="S3_el" nVehContrib="1" flow="120.00" occupancy="0.90" speed="18.62" length="5.00" nVehEntered="1"/>
   <interval begin="240.00" end="270.00" id="N1_el" nVehContrib="5" flow="600.00" occupancy="75.16" speed="6.76" length="5.00" nVehEntered="5"/>
   <interval begin="240.00" end="270.00" id="N2_el" nVehContrib="5" flow="600.00" occupancy="74.37" speed="6.28" length="5.00" nVehEntered="5"/>
   <interval begin="240.00" end="270.00" id="N3_el" nVehContrib="4" flow="480.00" occupancy="77.45" speed="5.25" length="5.00" nVehEntered="4"/>
   <interval begin="270.00" end="300.00" id="W1_el" nVehContrib="2" flow="240.00" occupancy="89.17" speed="2.68" length="5.00" nVehEntered="2"/>
   <interval begin="270.00" end="300.00" id="W2_el" nVehContrib="2" flow="240.00" occupancy="89.71" speed="2.40" length="5.00" nVehEntered="2"/>
   <interval begin="270.00" end="300.00" id="W3_el" nVehContrib="1" flow="120.00" occupancy="92.60" speed="0.07" length="5.00" nVehEntered="1"/>
   <interval begin="270.00" end="300.00" id="E1_el" nVehContrib="2" flow="240.00" occupancy="88.52" speed="2.64" length="5.00" nVehEntered="2"/>
   <interval begin="270.00" end="300.00" id="E2_el" nVehContrib="2" flow="240.00" occupancy="88.57" speed="2.50" length="5.00" nVehEntered="2"/>
   <interval begin="270.00" end="300.00" id="E3_el" nVehContrib="0" flow="0.00" occupancy="0.00" speed="-1.00" length="-1.00" nVehEntered="0"/>
   <interval begin="270.00" end="300.00" id="S1_el" nVehContrib="0" flow="0.00" occupancy="100.00" speed="-1.00" length="-1.00" nVehEntered="0"/>
   <interval begin="270.00" end="300.00" id="S2_el" nVehContrib="0" flow="0.00" occupancy="100.00" speed="-1.00" length="-1.00" nVehEntered="0"/>
   <interval begin="270.00" end="300.00" id="S3_el" nVehContrib="1" flow="120.00" occupancy="1.17" speed="14.22" length="5.00" nVehEntered="1"/>
   <interval begin="270.00" end="300.00" id="N1_el" nVehContrib="11" flow="1320.00" occupancy="30.19" speed="12.56" length="5.00" nVehEntered="11"/>
   <interval begin="270.00" end="300.00" id="N2_el" nVehContrib="11" flow="1320.00" occupancy="32.51" speed="10.11" length="5.00" nVehEntered="11"/>
   <interval begin="270.00" end="300.00" id="N3_el" nVehContrib="5" flow="600.00" occupancy="10.47" speed="6.39" length="5.00" nVehEntered="5"/>
   <interval begin="300.00" end="330.00" id="W1_el" nVehContrib="14" flow="1680.00" occupancy="23.74" speed="10.81" length="5.00" nVehEntered="14"/>
   <interval begin="300.00" end="330.00" id="W2_el" nVehContrib="13" flow="1560.00" occupancy="23.67" speed="10.04" length="5.00" nVehEntered="13"/>
   <interval begin="300.00" end="330.00" id="W3_el" nVehContrib="1" flow="120.00" occupancy="11.32" speed="0.94" length="5.00" nVehEntered="1"/>
   <interval begin="300.00" end="330.00" id="E1_el" nVehContrib="14" flow="1680.00" occupancy="19.30" speed="12.46" length="5.00" nVehEntered="14"/>
   <interval begin="300.00" end="330.00" id="E2_el" nVehContrib="11" flow="1320.00" occupancy="19.42" speed="9.80" length="5.00" nVehEntered="11"/>
   <interval begin="300.00" end="330.00" id="E3_el" nVehContrib="1" flow="120.00" occupancy="1.26" speed="13.24" length="5.00" nVehEntered="1"/>
   <interval begin="300.00" end="330.00" id="S1_el" nVehContrib="0" flow="0.00" occupancy="100.00" speed="-1.00" length="-1.00" nVehEntered="0"/>
   <interval begin="300.00" end="330.00" id="S2_el" nVehContrib="0" flow="0.00" occupancy="100.00" speed="-1.00" length="-1.00" nVehEntered="0"/>
   <interval begin="300.00" end="330.00" id="S3_el" nVehContrib="1" flow="120.00" occupancy="1.19" speed="14.00" length="5.00" nVehEntered="1"/>
   <interval begin="300.00" end="330.00" id="N1_el" nVehContrib="0" flow="0.00" occupancy="100.00" speed="-1.00" length="-1.00" nVehEntered="0"/>
   <interval begin="300.00" end="330.00" id="N2_el" nVehContrib="0" flow="0.00" occupancy="100.00" speed="-1.00" length="-1.00" nVehEntered="0"/>
   <interval begin="300.00" end="330.00" id="N3_el" nVehContrib="2" flow="240.00" occupancy="2.36" speed="14.23" length="5.00" nVehEntered="2"/>
   <interval begin="330.00" end="360.00" id="W1_el" nVehContrib="0" flow="0.00" occupancy="94.11" speed="-1.00" length="-1.00" nVehEntered="0"/>
   <interval begin="330.00" end="360.00" id="W2_el" nVehContrib="1" flow="120.00" occupancy="78.48" speed="6.35" length="5.00" nVehEntered="1"/>
   <interval begin="330.00" end="360.00" id="W3_el" nVehContrib="0" flow="0.00" occupancy="87.28" speed="-1.00" length="-1.00" nVehEntered="0"/>
   <interval begin="330.00" end="360.00" id="E1_el" nVehContrib="1" flow="120.00" occupancy="29.83" speed="5.57" length="5.00" nVehEntered="2"/>
   <interval begin="330.00" end="360.00" id="E2_el" nVehContrib="1" flow="120.00" occupancy="3.27" speed="5.10" length="5.00" nVehEntered="1"/>
   <interval begin="330.00" end="360.00" id="E3_el" nVehContrib="3" flow="360.00" occupancy="23.27" speed="9.15" length="5.00" nVehEntered="3"/>
   <interval begin="330.00" end="360.00" id="S1_el" nVehContrib="15" flow="1800.00" occupancy="28.70" speed="11.05" length="5.00" nVehEntered="15"/>
   <interval begin="330.00" end="360.00" id="S2_el" nVehContrib="14" flow="1680.00" occupancy="25.63" speed="10.35" length="5.00" nVehEntered="14"/>
   <interval begin="330.00" end="360.00" id="S3_el" nVehContrib="3" flow="360.00" occupancy="4.54" speed="11.69" length="5.00" nVehEntered="3"/>
   <interval begin="330.00" end="360.00" id="N1_el" nVehContrib="14" flow="1680.00" occupancy="29.76" speed="9.76" length="5.00" nVehEntered="14"/>
   <interval begin="330.00" end="360.00" id="N2_el" nVehContrib="14" flow="1680.00" occupancy="30.34" speed="8.50" length="5.00" nVehEntered="14"/>
   <interval begin="330.00" end="360.00" id="N3_el" nVehContrib="3" flow="360.00" occupancy="4.50" speed="11.48" length="5.00" nVehEntered="3"/>
   <interval begin="360.00" end="390.00" id="W1_el" nVehContrib="0" flow="0.00" occupancy="100.00" speed="-1.00" length="-1.00" nVehEntered="0"/>
   <interval begin="360.00" end="390.00" id="W2_el" nVehContrib="0" flow="0.00" occupancy="100.00" speed="-1.00" length="-1.00" nVehEntered="0"/>
   <interval begin="360.00" end="390.00" id="W3_el" nVehContrib="0" flow="0.00" occupancy="100.00" speed="-1.00" length="-1.00" nVehEntered="0"/>
   <interval begin="360.00" end="390.00" id="E1_el" nVehContrib="0" flow="0.00" occupancy="100.00" speed="-1.00" length="-1.00" nVehEntered="0"/>
   <interval begin="360.00" end="390.00" id="E2_el" nVehContrib="0" flow="0.00" occupancy="98.65" speed="-1.00" length="-1.00" nVehEntered="0"/>
   <interval begin="360.00" end="390.00" id="E3_el" nVehContrib="0" flow="0.00" occupancy="100.00" speed="-1.00" length="-1.00" nVehEntered="0"/>
   <interval begin="360.00" end="390.00" id="S1_el" nVehContrib="14" flow="1680.00" occupancy="28.03" speed="9.47" length="5.00" nVehEntered="14"/>
   <interval begin="360.00" end="390.00" id="S2_el" nVehContrib="12" flow="1440.00" occupancy="30.07" speed="8.98" length="5.00" nVehEntered="12"/>
   <interval begin="360.00" end="390.00" id="S3_el" nVehContrib="0" flow="0.00" occupancy="0.00" speed="-1.00" length="-1.00" nVehEntered="0"/>
   <interval begin="360.00" end="390.00" id="N1_el" nVehContrib="13" flow="1560.00" occupancy="30.31" speed="8.27" length="5.00" nVehEntered="13"/>
   <interval begin="360.00" end="390.00" id="N2_el" nVehContrib="12" flow="1440.00" occupancy="26.91" speed="9.34" length="5.00" nVehEntered="12"/>
   <interval begin="360.00" end="390.00" id="N3_el" nVehContrib="1" flow="120.00" occupancy="3.90" speed="4.28" length="5.00" nVehEntered="1"/>
   <interval begin="390.00" end="420.00" id="W1_el" nVehContrib="8" flow="960.00" occupancy="60.57" speed="7.94" length="5.00" nVehEntered="8"/>
   <interval begin="390.00" end="420.00" id="W2_el" nVehContrib="8" flow="960.00" occupancy="59.79" speed="8.15" length="5.00" nVehEntered="8"/>
   <interval begin="390.00" end="420.00" id="W3_el" nVehContrib="0" flow="0.00" occupancy="100.00" speed="-1.00" length="-1.00" nVehEntered="0"/>
   <interval begin="390.00" end="420.00" id="E1_el" nVehContrib="8" flow="960.00" occupancy="59.60" speed="8.96" length="5.00" nVehEntered="8"/>
   <interval begin="390.00" end="420.00" id="E2_el" nVehContrib="7" flow="840.00" occupancy="59.80" speed="7.62" length="5.00" nVehEntered="7"/>
   <interval begin="390.00" end="420.00" id="E3_el" nVehContrib="0" flow="0.00" occupancy="100.00" speed="-1.00" length="-1.00" nVehEntered="0"/>
   <interval begin="390.00" end="420.00" id="S1_el" nVehContrib="4" flow="480.00" occupancy="58.31" speed="8.70" length="5.00" nVehEntered="4"/>
   <interval begin="390.00" end="420.00" id="S2_el" nVehContrib="4" flow="480.00" occupancy="7.82" speed="8.93" length="5.00" nVehEntered="4"/>
   <interval begin="390.00" end="420.00" id="S3_el" nVehContrib="1" flow="120.00" occupancy="37.11" speed="5.66" length="5.00" nVehEntered="1"/>
   <interval begin="390.00" end="420.00" id="N1_el" nVehContrib="7" flow="840.00" occupancy="12.91" speed="10.79" length="5.00" nVehEntered="7"/>
   <interval begin="390.00" end="420.00" id="N2_el" nVehContrib="2" flow="240.00" occupancy="2.36" speed="14.56" length="5.00" nVehEntered="2"/>
   <interval begin="390.00" end="420.00" id="N3_el" nVehContrib="0" flow="0.00" occupancy="0.00" speed="-1.00" length="-1.00" nVehEntered="0"/>
   <interval begin="420.00" end="450.00" id="W1_el" nVehContrib="9" flow="1080.00" occupancy="14.32" speed="11.50" length="5.00" nVehEntered="9"/>
   <interval begin="420.00" end="450.00" id="W2_el" nVehContrib="6" flow="720.00" occupancy="9.04" speed="10.67" length="5.00" nVehEntered="6"/>
   <interval begin="420.00" end="450.00" id="W3_el" nVehContrib="0" flow="0.00" occupancy="100.00" speed="-1.00" length="-1.00" nVehEntered="0"/>
   <interval begin="420.00" end="450.00" id="E1_el" nVehContrib="6" flow="720.00" occupancy="7.16" speed="14.46" length="5.00" nVehEntered="7"/>
   <interval begin="420.00" end="450.00" id="E2_el" nVehContrib="2" flow="240.00" occupancy="2.03" speed="16.53" length="5.00" nVehEntered="2"/>
   <interval begin="420.00" end="450.00" id="E3_el" nVehContrib="0" flow="0.00" occupancy="100.00" speed="-1.00" length="-1.00" nVehEntered="0"/>
   <interval begin="420.00" end="450.00" id="S1_el" nVehContrib="0" flow="0.00" occupancy="100.00" speed="-1.00" length="-1.00" nVehEntered="0"/>
   <interval begin="420.00" end="450.00" id="S2_el" nVehContrib="0" flow="0.00" occupancy="90.09" speed="-1.00" length="-1.00" nVehEntered="0"/>
   <interval begin="420.00" end="450.00" id="S3_el" nVehContrib="5" flow="600.00" occupancy="75.05" speed="5.49" length="5.00" nVehEntered="5"/>
   <interval begin="420.00" end="450.00" id="N1_el" nVehContrib="0" flow="0.00" occupancy="67.99" speed="-1.00" length="-1.00" nVehEntered="0"/>
   <interval begin="420.00" end="450.00" id="N2_el" nVehContrib="1" flow="120.00" occupancy="49.72" speed="6.08" length="5.00" nVehEntered="1"/>
   <interval begin="420.00" end="450.00" id="N3_el" nVehContrib="4" flow="480.00" occupancy="67.90" speed="3.61" length="5.00" nVehEntered="4"/>
   <interval begin="450.00" end="480.00" id="W1_el" nVehContrib="0" flow="0.00" occupancy="72.00" speed="-1.00" length="-1.00" nVehEntered="0"/>
   <interval begin="450.00" end="480.00" id="W2_el" nVehContrib="1" flow="120.00" occupancy="50.21" speed="5.95" length="5.00" nVehEntered="1"/>
   <interval begin="450.00" end="480.00" id="W3_el" nVehContrib="2" flow="240.00" occupancy="89.58" speed="2.84" length="5.00" nVehEntered="2"/>
   <interval begin="450.00" end="480.00" id="E1_el" nVehContrib="3" flow="360.00" occupancy="36.70" speed="7.59" length="5.00" nVehEntered="3"/>
   <interval begin="450.00" end="480.00" id="E2_el" nVehContrib="1" flow="120.00" occupancy="3.02" speed="5.52" length="5.00" nVehEntered="1"/>
   <interval begin="450.00" end="480.00" id="E3_el" nVehContrib="2" flow="240.00" occupancy="90.51" speed="2.44" length="5.00" nVehEntered="2"/>
   <interval begin="450.00" end="480.00" id="S1_el" nVehContrib="0" flow="0.00" occupancy="100.00" speed="-1.00" length="-1.00" nVehEntered="0"/>
   <interval begin="450.00" end="480.00" id="S2_el" nVehContrib="0" flow="0.00" occupancy="100.00" speed="-1.00" length="-1.00" nVehEntered="0"/>
   <interval begin="450.00" end="480.00" id="S3_el" nVehContrib="2" flow="240.00" occupancy="2.67" speed="13.82" length="5.00" nVehEntered="2"/>
   <interval begin="450.00" end="480.00" id="N1_el" nVehContrib="0" flow="0.00" occupancy="100.00" speed="-1.00" length="-1.00" nVehEntered="0"/>
   <interval begin="450.00" end="480.00" id="N2_el" nVehContrib="0" flow="0.00" occupancy="100.00" speed="-1.00" length="-1.00" nVehEntered="0"/>
   <interval begin="450.00" end="480.00" id="N3_el" nVehContrib="4" flow="480.00" occupancy="4.59" speed="15.08" length="5.00" nVehEntered="4"/>
   <interval begin="480.00" end="510.00" id="W1_el" nVehContrib="0" flow="0.00" occupancy="100.00" speed="-1.00" length="-1.00" nVehEntered="0"/>
   <interval begin="480.00" end="510.00" id="W2_el" nVehContrib="0" flow="0.00" occupancy="100.00" speed="-1.00" length="-1.00" nVehEntered="0"/>
   <interval begin="480.00" end="510.00" id="W3_el" nVehContrib="11" flow="1320.00" occupancy="32.92" speed="6.08" length="5.00" nVehEntered="11"/>
   <interval begin="480.00" end="510.00" id="E1_el" nVehContrib="0" flow="0.00" occupancy="100.00" speed="-1.00" length="-1.00" nVehEntered="0"/>
   <interval begin="480.00" end="510.00" id="E2_el" nVehContrib="0" flow="0.00" occupancy="89.15" speed="-1.00" length="-1.00" nVehEntered="0"/>
   <interval begin="480.00" end="510.00" id="E3_el" nVehContrib="11" flow="1320.00" occupancy="30.95" speed="6.51" length="5.00" nVehEntered="11"/>
   <interval begin="480.00" end="510.00" id="S1_el" nVehContrib="0" flow="0.00" occupancy="100.00" speed="-1.00" length="-1.00" nVehEntered="0"/>
   <interval begin="480.00" end="510.00" id="S2_el" nVehContrib="0" flow="0.00" occupancy="100.00" speed="-1.00" length="-1.00" nVehEntered="0"/>
   <interval begin="480.00" end="510.00" id="S3_el" nVehContrib="3" flow="360.00" occupancy="4.09" speed="12.50" length="5.00" nVehEntered="3"/>